 Entering Gaussian System, Link 0=/home2/zdrahala/programs/a/bin/G16C-h//g16
 Input=CoO_komplex_read.inp
 Output=CoO_komplex_read.out
 Initial command:
 /home2/zdrahala/programs/a/bin/G16C-h/l1.exe "/dev/shm/slurm_jobs/zdrahala/13679040/Gau-600249.inp" -scrdir="/dev/shm/slurm_jobs/zdrahala/13679040/"
 Entering Link 1 = /home2/zdrahala/programs/a/bin/G16C-h/l1.exe PID=    600250.
  
 Copyright (c) 1988-2019, Gaussian, Inc.  All Rights Reserved.
  
 This is part of the Gaussian(R) 16 program.  It is based on
 the Gaussian(R) 09 system (copyright 2009, Gaussian, Inc.),
 the Gaussian(R) 03 system (copyright 2003, Gaussian, Inc.),
 the Gaussian(R) 98 system (copyright 1998, Gaussian, Inc.),
 the Gaussian(R) 94 system (copyright 1995, Gaussian, Inc.),
 the Gaussian 92(TM) system (copyright 1992, Gaussian, Inc.),
 the Gaussian 90(TM) system (copyright 1990, Gaussian, Inc.),
 the Gaussian 88(TM) system (copyright 1988, Gaussian, Inc.),
 the Gaussian 86(TM) system (copyright 1986, Carnegie Mellon
 University), and the Gaussian 82(TM) system (copyright 1983,
 Carnegie Mellon University). Gaussian is a federally registered
 trademark of Gaussian, Inc.
  
 This software contains proprietary and confidential information,
 including trade secrets, belonging to Gaussian, Inc.
  
 This software is provided under written license and may be
 used, copied, transmitted, or stored only in accord with that
 written license.
  
 The following legend is applicable only to US Government
 contracts under FAR:
  
                    RESTRICTED RIGHTS LEGEND
  
 Use, reproduction and disclosure by the US Government is
 subject to restrictions as set forth in subparagraphs (a)
 and (c) of the Commercial Computer Software - Restricted
 Rights clause in FAR 52.227-19.
  
 Gaussian, Inc.
 340 Quinnipiac St., Bldg. 40, Wallingford CT 06492
  
  
 ---------------------------------------------------------------
 Warning -- This program may not be used in any manner that
 competes with the business of Gaussian, Inc. or will provide
 assistance to any competitor of Gaussian, Inc.  The licensee
 of this program is prohibited from giving any competitor of
 Gaussian, Inc. access to this program.  By using this program,
 the user acknowledges that Gaussian, Inc. is engaged in the
 business of creating and licensing software in the field of
 computational chemistry and represents and warrants to the
 licensee that it is not a competitor of Gaussian, Inc. and that
 it will not use this program in any manner prohibited above.
 ---------------------------------------------------------------
  

 Cite this work as:
 Gaussian 16, Revision C.01,
 M. J. Frisch, G. W. Trucks, H. B. Schlegel, G. E. Scuseria, 
 M. A. Robb, J. R. Cheeseman, G. Scalmani, V. Barone, 
 G. A. Petersson, H. Nakatsuji, X. Li, M. Caricato, A. V. Marenich, 
 J. Bloino, B. G. Janesko, R. Gomperts, B. Mennucci, H. P. Hratchian, 
 J. V. Ortiz, A. F. Izmaylov, J. L. Sonnenberg, D. Williams-Young, 
 F. Ding, F. Lipparini, F. Egidi, J. Goings, B. Peng, A. Petrone, 
 T. Henderson, D. Ranasinghe, V. G. Zakrzewski, J. Gao, N. Rega, 
 G. Zheng, W. Liang, M. Hada, M. Ehara, K. Toyota, R. Fukuda, 
 J. Hasegawa, M. Ishida, T. Nakajima, Y. Honda, O. Kitao, H. Nakai, 
 T. Vreven, K. Throssell, J. A. Montgomery, Jr., J. E. Peralta, 
 F. Ogliaro, M. J. Bearpark, J. J. Heyd, E. N. Brothers, K. N. Kudin, 
 V. N. Staroverov, T. A. Keith, R. Kobayashi, J. Normand, 
 K. Raghavachari, A. P. Rendell, J. C. Burant, S. S. Iyengar, 
 J. Tomasi, M. Cossi, J. M. Millam, M. Klene, C. Adamo, R. Cammi, 
 J. W. Ochterski, R. L. Martin, K. Morokuma, O. Farkas, 
 J. B. Foresman, and D. J. Fox, Gaussian, Inc., Wallingford CT, 2019.
 
 ******************************************
 Gaussian 16:  ES64L-G16RevC.01  3-Jul-2019
                27-Mar-2025 
 ******************************************
 %chk=sragora.chk
 %mem=15GB
 %nproc=36
 Will use up to   36 processors via shared memory.
 ------------------------------------------------
 #p iop(2/11=1) freq(ReadFc) Geom=AllCheck nosymm
 ------------------------------------------------
 1/29=7,38=1,172=1/1;
 2/11=1,12=2,15=1,40=1/2;
 7/8=1,25=11,30=1/16;
 99/5=2/99;
 Leave Link    1 at Thu Mar 27 16:23:53 2025, MaxMem=  2013265920 cpu:               0.2 elap:               0.0
 (Enter /home2/zdrahala/programs/a/bin/G16C-h/l101.exe)
 Structure from the checkpoint file:  "sragora.chk"
 -------------------------------------------
 Last Z-matrix Geometry from Gaussian output
 -------------------------------------------
 Charge = -1 Multiplicity = 1
 No Z-Matrix found in chk file; cartesian coordinates used.
  Co                                               -0.120688960000      0.179232290000     -0.527015140000
  O                                                 1.196237210000      3.808051800000     -1.083391430000
  C                                                 0.551741550000      2.761745120000     -0.969971630000
  O                                                 1.079954570000      1.647635870000     -0.603933710000
  C                                                -0.962823550000      2.678483240000     -1.211005010000
  N                                                -1.222425980000      1.290674600000     -1.688162650000
  C                                                -0.788971740000      1.079932380000     -3.106322920000
  H                                                -1.600387630000      1.341375950000     -3.790420020000
  H                                                 0.056519780000      1.736385320000     -3.312596240000
  C                                                -0.377381650000     -0.373002570000     -3.257949860000
  N                                                 0.544873060000     -0.704775220000     -2.129223260000
  C                                                 0.546948700000     -2.147297610000     -1.771284130000
  C                                                -0.743065160000     -2.402888630000     -0.970090530000
  O                                                -1.177566320000     -3.557387700000     -0.822438710000
  O                                                -1.276134030000     -1.358488520000     -0.456634710000
  C                                                 1.780090710000     -2.487331030000     -0.930460020000
  C                                                 1.931135710000     -1.700717800000      0.368294030000
  O                                                 2.823439910000     -2.062849060000      1.169139790000
  O                                                 1.173053160000     -0.707391420000      0.619699020000
  H                                                 1.767830790000     -3.548795490000     -0.681791450000
  H                                                 2.684428800000     -2.321992950000     -1.523553230000
  H                                                 0.553038260000     -2.769969330000     -2.668496390000
  H                                                 1.495576190000     -0.371393700000     -2.338961560000
  H                                                 0.111705590000     -0.558735860000     -4.216817720000
  H                                                -1.252124030000     -1.019861850000     -3.187757470000
  H                                                -2.226732820000      1.070617050000     -1.613709090000
  H                                                -1.263175390000      3.406745700000     -1.967421300000
  C                                                -1.736213660000      2.955069870000      0.084741500000
  C                                                -1.511445440000      1.990382770000      1.251538720000
  O                                                -1.933655110000      2.335260760000      2.374303130000
  O                                                -0.922275420000      0.871486160000      1.071264780000
  H                                                -1.503757460000      3.962634130000      0.433747920000
  H                                                -2.808541310000      2.944562610000     -0.132536320000
  O                                                 2.038636320000     -4.732304560000      2.008503140000
  H                                                 2.829723310000     -5.231726700000      2.239327570000
  H                                                 2.363775410000     -3.837238000000      1.810701580000
  O                                                 1.123172930000      6.350384930000     -2.288089710000
  H                                                 1.102982390000      5.446571510000     -1.925377620000
  H                                                 0.671400140000      6.880765830000     -1.623596640000
  O                                                 3.728480820000      3.189039790000      0.275284350000
  H                                                 3.618008530000      2.279156800000      0.580774480000
  H                                                 2.901573340000      3.388876180000     -0.205905120000
  O                                                 0.250149610000      3.806209290000      3.463393610000
  H                                                -0.010177610000      4.733401520000      3.438878860000
  H                                                -0.542823650000      3.319160130000      3.185394320000
  O                                                 0.454588050000     -0.736636880000      3.753791770000
  H                                                 0.290339170000     -1.686158180000      3.852153300000
  H                                                 0.486280710000     -0.597021170000      2.792944840000
  O                                                 3.929391990000      0.159176670000      2.587995530000
  H                                                 3.197080520000      0.737065130000      2.828531360000
  H                                                 3.502530580000     -0.602973720000      2.151964880000
  O                                                 3.261376580000      0.519440920000     -2.540086960000
  H                                                 3.106307500000      1.393062320000     -2.921311650000
  H                                                 3.671575600000      0.703720350000     -1.686051170000
  O                                                -4.349080530000      3.339138250000      3.373019310000
  H                                                -4.362570280000      2.922355830000      4.240168880000
  H                                                -3.513324580000      3.038008300000      2.969706520000
  O                                                -3.056578790000     -1.300982950000      2.885550260000
  H                                                -2.390825250000     -1.951543120000      2.591422180000
  H                                                -3.593969660000     -1.797946920000      3.514262240000
  O                                                 5.522134230000     -2.787830090000      0.640525010000
  H                                                 5.686790750000     -2.684893390000     -0.301263360000
  H                                                 4.576329210000     -2.585448450000      0.752525080000
  O                                                -3.797633550000     -4.657994130000     -0.048318570000
  H                                                -3.646959150000     -5.319964040000      0.633130380000
  H                                                -2.925588870000     -4.273050480000     -0.229005070000
  O                                                -1.254807650000     -3.384551400000      2.190223810000
  H                                                -1.289732900000     -4.237084380000      2.643835190000
  H                                                -1.210617020000     -3.594471440000      1.243189810000
  O                                                -4.099547350000      0.913055510000     -1.769096220000
  H                                                -4.523155790000      0.079746060000     -1.530843110000
  H                                                -4.508635880000      1.182694680000     -2.599393090000
  O                                                -2.534729280000     -4.192322510000     -3.424781280000
  H                                                -2.092239140000     -4.108285470000     -2.565793780000
  H                                                -1.906740050000     -3.830044840000     -4.061522390000
 Recover connectivity data from disk.
 ITRead=  0  0  0  0  0  0  0  0  0  0  0  0  0  0  0  0  0  0  0  0
 ITRead=  0  0  0  0  0  0  0  0  0  0  0  0  0  0  0  0  0  0  0  0
 ITRead=  0  0  0  0  0  0  0  0  0  0  0  0  0  0  0  0  0  0  0  0
 ITRead=  0  0  0  0  0  0  0  0  0  0  0  0  0  0  0
 MicOpt= -1 -1 -1 -1 -1 -1 -1 -1 -1 -1 -1 -1 -1 -1 -1 -1 -1 -1 -1 -1
 MicOpt= -1 -1 -1 -1 -1 -1 -1 -1 -1 -1 -1 -1 -1 -1 -1 -1 -1 -1 -1 -1
 MicOpt= -1 -1 -1 -1 -1 -1 -1 -1 -1 -1 -1 -1 -1 -1 -1 -1 -1 -1 -1 -1
 MicOpt= -1 -1 -1 -1 -1 -1 -1 -1 -1 -1 -1 -1 -1 -1 -1
 NAtoms=     75 NQM=       75 NQMF=       0 NMMI=      0 NMMIF=      0
                NMic=       0 NMicF=      0.
                    Isotopes and Nuclear Properties:
 (Nuclear quadrupole moments (NQMom) in fm**2, nuclear magnetic moments (NMagM)
  in nuclear magnetons)

  Atom         1           2           3           4           5           6           7           8           9          10
 IAtWgt=          59          16          12          16          12          14          12           1           1          12
 AtmWgt=  58.9331978  15.9949146  12.0000000  15.9949146  12.0000000  14.0030740  12.0000000   1.0078250   1.0078250  12.0000000
 NucSpn=           7           0           0           0           0           2           0           1           1           0
 AtZEff=  25.3800000   5.6000000   3.6000000   5.6000000   3.6000000   4.5500000   3.6000000   1.0000000   1.0000000   3.6000000
 NQMom=   42.0000000   0.0000000   0.0000000   0.0000000   0.0000000   2.0440000   0.0000000   0.0000000   0.0000000   0.0000000
 NMagM=    4.6270000   0.0000000   0.0000000   0.0000000   0.0000000   0.4037610   0.0000000   2.7928460   2.7928460   0.0000000
 AtZNuc=  27.0000000   8.0000000   6.0000000   8.0000000   6.0000000   7.0000000   6.0000000   1.0000000   1.0000000   6.0000000

  Atom        11          12          13          14          15          16          17          18          19          20
 IAtWgt=          14          12          12          16          16          12          12          16          16           1
 AtmWgt=  14.0030740  12.0000000  12.0000000  15.9949146  15.9949146  12.0000000  12.0000000  15.9949146  15.9949146   1.0078250
 NucSpn=           2           0           0           0           0           0           0           0           0           1
 AtZEff=   4.5500000   3.6000000   3.6000000   5.6000000   5.6000000   3.6000000   3.6000000   5.6000000   5.6000000   1.0000000
 NQMom=    2.0440000   0.0000000   0.0000000   0.0000000   0.0000000   0.0000000   0.0000000   0.0000000   0.0000000   0.0000000
 NMagM=    0.4037610   0.0000000   0.0000000   0.0000000   0.0000000   0.0000000   0.0000000   0.0000000   0.0000000   2.7928460
 AtZNuc=   7.0000000   6.0000000   6.0000000   8.0000000   8.0000000   6.0000000   6.0000000   8.0000000   8.0000000   1.0000000

  Atom        21          22          23          24          25          26          27          28          29          30
 IAtWgt=           1           1           1           1           1           1           1          12          12          16
 AtmWgt=   1.0078250   1.0078250   1.0078250   1.0078250   1.0078250   1.0078250   1.0078250  12.0000000  12.0000000  15.9949146
 NucSpn=           1           1           1           1           1           1           1           0           0           0
 AtZEff=   1.0000000   1.0000000   1.0000000   1.0000000   1.0000000   1.0000000   1.0000000   3.6000000   3.6000000   5.6000000
 NQMom=    0.0000000   0.0000000   0.0000000   0.0000000   0.0000000   0.0000000   0.0000000   0.0000000   0.0000000   0.0000000
 NMagM=    2.7928460   2.7928460   2.7928460   2.7928460   2.7928460   2.7928460   2.7928460   0.0000000   0.0000000   0.0000000
 AtZNuc=   1.0000000   1.0000000   1.0000000   1.0000000   1.0000000   1.0000000   1.0000000   6.0000000   6.0000000   8.0000000

  Atom        31          32          33          34          35          36          37          38          39          40
 IAtWgt=          16           1           1          16           1           1          16           1           1          16
 AtmWgt=  15.9949146   1.0078250   1.0078250  15.9949146   1.0078250   1.0078250  15.9949146   1.0078250   1.0078250  15.9949146
 NucSpn=           0           1           1           0           1           1           0           1           1           0
 AtZEff=   5.6000000   1.0000000   1.0000000   5.6000000   1.0000000   1.0000000   5.6000000   1.0000000   1.0000000   5.6000000
 NQMom=    0.0000000   0.0000000   0.0000000   0.0000000   0.0000000   0.0000000   0.0000000   0.0000000   0.0000000   0.0000000
 NMagM=    0.0000000   2.7928460   2.7928460   0.0000000   2.7928460   2.7928460   0.0000000   2.7928460   2.7928460   0.0000000
 AtZNuc=   8.0000000   1.0000000   1.0000000   8.0000000   1.0000000   1.0000000   8.0000000   1.0000000   1.0000000   8.0000000

  Atom        41          42          43          44          45          46          47          48          49          50
 IAtWgt=           1           1          16           1           1          16           1           1          16           1
 AtmWgt=   1.0078250   1.0078250  15.9949146   1.0078250   1.0078250  15.9949146   1.0078250   1.0078250  15.9949146   1.0078250
 NucSpn=           1           1           0           1           1           0           1           1           0           1
 AtZEff=   1.0000000   1.0000000   5.6000000   1.0000000   1.0000000   5.6000000   1.0000000   1.0000000   5.6000000   1.0000000
 NQMom=    0.0000000   0.0000000   0.0000000   0.0000000   0.0000000   0.0000000   0.0000000   0.0000000   0.0000000   0.0000000
 NMagM=    2.7928460   2.7928460   0.0000000   2.7928460   2.7928460   0.0000000   2.7928460   2.7928460   0.0000000   2.7928460
 AtZNuc=   1.0000000   1.0000000   8.0000000   1.0000000   1.0000000   8.0000000   1.0000000   1.0000000   8.0000000   1.0000000

  Atom        51          52          53          54          55          56          57          58          59          60
 IAtWgt=           1          16           1           1          16           1           1          16           1           1
 AtmWgt=   1.0078250  15.9949146   1.0078250   1.0078250  15.9949146   1.0078250   1.0078250  15.9949146   1.0078250   1.0078250
 NucSpn=           1           0           1           1           0           1           1           0           1           1
 AtZEff=   1.0000000   5.6000000   1.0000000   1.0000000   5.6000000   1.0000000   1.0000000   5.6000000   1.0000000   1.0000000
 NQMom=    0.0000000   0.0000000   0.0000000   0.0000000   0.0000000   0.0000000   0.0000000   0.0000000   0.0000000   0.0000000
 NMagM=    2.7928460   0.0000000   2.7928460   2.7928460   0.0000000   2.7928460   2.7928460   0.0000000   2.7928460   2.7928460
 AtZNuc=   1.0000000   8.0000000   1.0000000   1.0000000   8.0000000   1.0000000   1.0000000   8.0000000   1.0000000   1.0000000

  Atom        61          62          63          64          65          66          67          68          69          70
 IAtWgt=          16           1           1          16           1           1          16           1           1          16
 AtmWgt=  15.9949146   1.0078250   1.0078250  15.9949146   1.0078250   1.0078250  15.9949146   1.0078250   1.0078250  15.9949146
 NucSpn=           0           1           1           0           1           1           0           1           1           0
 AtZEff=   5.6000000   1.0000000   1.0000000   5.6000000   1.0000000   1.0000000   5.6000000   1.0000000   1.0000000   5.6000000
 NQMom=    0.0000000   0.0000000   0.0000000   0.0000000   0.0000000   0.0000000   0.0000000   0.0000000   0.0000000   0.0000000
 NMagM=    0.0000000   2.7928460   2.7928460   0.0000000   2.7928460   2.7928460   0.0000000   2.7928460   2.7928460   0.0000000
 AtZNuc=   8.0000000   1.0000000   1.0000000   8.0000000   1.0000000   1.0000000   8.0000000   1.0000000   1.0000000   8.0000000

  Atom        71          72          73          74          75
 IAtWgt=           1           1          16           1           1
 AtmWgt=   1.0078250   1.0078250  15.9949146   1.0078250   1.0078250
 NucSpn=           1           1           0           1           1
 AtZEff=   1.0000000   1.0000000   5.6000000   1.0000000   1.0000000
 NQMom=    0.0000000   0.0000000   0.0000000   0.0000000   0.0000000
 NMagM=    2.7928460   2.7928460   0.0000000   2.7928460   2.7928460
 AtZNuc=   1.0000000   1.0000000   8.0000000   1.0000000   1.0000000
 Leave Link  101 at Thu Mar 27 16:23:54 2025, MaxMem=  2013265920 cpu:               0.2 elap:               0.2
 (Enter /home2/zdrahala/programs/a/bin/G16C-h/l202.exe)
                          Input orientation:                          
 ---------------------------------------------------------------------
 Center     Atomic      Atomic             Coordinates (Angstroms)
 Number     Number       Type             X           Y           Z
 ---------------------------------------------------------------------
      1         27           0       -0.120689    0.179232   -0.527015
      2          8           0        1.196237    3.808052   -1.083391
      3          6           0        0.551742    2.761745   -0.969972
      4          8           0        1.079955    1.647636   -0.603934
      5          6           0       -0.962824    2.678483   -1.211005
      6          7           0       -1.222426    1.290675   -1.688163
      7          6           0       -0.788972    1.079932   -3.106323
      8          1           0       -1.600388    1.341376   -3.790420
      9          1           0        0.056520    1.736385   -3.312596
     10          6           0       -0.377382   -0.373003   -3.257950
     11          7           0        0.544873   -0.704775   -2.129223
     12          6           0        0.546949   -2.147298   -1.771284
     13          6           0       -0.743065   -2.402889   -0.970091
     14          8           0       -1.177566   -3.557388   -0.822439
     15          8           0       -1.276134   -1.358489   -0.456635
     16          6           0        1.780091   -2.487331   -0.930460
     17          6           0        1.931136   -1.700718    0.368294
     18          8           0        2.823440   -2.062849    1.169140
     19          8           0        1.173053   -0.707391    0.619699
     20          1           0        1.767831   -3.548795   -0.681791
     21          1           0        2.684429   -2.321993   -1.523553
     22          1           0        0.553038   -2.769969   -2.668496
     23          1           0        1.495576   -0.371394   -2.338962
     24          1           0        0.111706   -0.558736   -4.216818
     25          1           0       -1.252124   -1.019862   -3.187757
     26          1           0       -2.226733    1.070617   -1.613709
     27          1           0       -1.263175    3.406746   -1.967421
     28          6           0       -1.736214    2.955070    0.084742
     29          6           0       -1.511445    1.990383    1.251539
     30          8           0       -1.933655    2.335261    2.374303
     31          8           0       -0.922275    0.871486    1.071265
     32          1           0       -1.503757    3.962634    0.433748
     33          1           0       -2.808541    2.944563   -0.132536
     34          8           0        2.038636   -4.732305    2.008503
     35          1           0        2.829723   -5.231727    2.239328
     36          1           0        2.363775   -3.837238    1.810702
     37          8           0        1.123173    6.350385   -2.288090
     38          1           0        1.102982    5.446572   -1.925378
     39          1           0        0.671400    6.880766   -1.623597
     40          8           0        3.728481    3.189040    0.275284
     41          1           0        3.618009    2.279157    0.580774
     42          1           0        2.901573    3.388876   -0.205905
     43          8           0        0.250150    3.806209    3.463394
     44          1           0       -0.010178    4.733402    3.438879
     45          1           0       -0.542824    3.319160    3.185394
     46          8           0        0.454588   -0.736637    3.753792
     47          1           0        0.290339   -1.686158    3.852153
     48          1           0        0.486281   -0.597021    2.792945
     49          8           0        3.929392    0.159177    2.587996
     50          1           0        3.197081    0.737065    2.828531
     51          1           0        3.502531   -0.602974    2.151965
     52          8           0        3.261377    0.519441   -2.540087
     53          1           0        3.106308    1.393062   -2.921312
     54          1           0        3.671576    0.703720   -1.686051
     55          8           0       -4.349081    3.339138    3.373019
     56          1           0       -4.362570    2.922356    4.240169
     57          1           0       -3.513325    3.038008    2.969707
     58          8           0       -3.056579   -1.300983    2.885550
     59          1           0       -2.390825   -1.951543    2.591422
     60          1           0       -3.593970   -1.797947    3.514262
     61          8           0        5.522134   -2.787830    0.640525
     62          1           0        5.686791   -2.684893   -0.301263
     63          1           0        4.576329   -2.585448    0.752525
     64          8           0       -3.797634   -4.657994   -0.048319
     65          1           0       -3.646959   -5.319964    0.633130
     66          1           0       -2.925589   -4.273050   -0.229005
     67          8           0       -1.254808   -3.384551    2.190224
     68          1           0       -1.289733   -4.237084    2.643835
     69          1           0       -1.210617   -3.594471    1.243190
     70          8           0       -4.099547    0.913056   -1.769096
     71          1           0       -4.523156    0.079746   -1.530843
     72          1           0       -4.508636    1.182695   -2.599393
     73          8           0       -2.534729   -4.192323   -3.424781
     74          1           0       -2.092239   -4.108285   -2.565794
     75          1           0       -1.906740   -3.830045   -4.061522
 ---------------------------------------------------------------------
 Symmetry turned off by external request.
 Stoichiometry    C10H40CoN2O22(1-)
 Framework group  C1[X(C10H40CoN2O22)]
 Deg. of freedom   219
 Full point group                 C1      NOp   1
                          Input orientation:                          
 ---------------------------------------------------------------------
 Center     Atomic      Atomic             Coordinates (Angstroms)
 Number     Number       Type             X           Y           Z
 ---------------------------------------------------------------------
      1         27           0       -0.120689    0.179232   -0.527015
      2          8           0        1.196237    3.808052   -1.083391
      3          6           0        0.551742    2.761745   -0.969972
      4          8           0        1.079955    1.647636   -0.603934
      5          6           0       -0.962824    2.678483   -1.211005
      6          7           0       -1.222426    1.290675   -1.688163
      7          6           0       -0.788972    1.079932   -3.106323
      8          1           0       -1.600388    1.341376   -3.790420
      9          1           0        0.056520    1.736385   -3.312596
     10          6           0       -0.377382   -0.373003   -3.257950
     11          7           0        0.544873   -0.704775   -2.129223
     12          6           0        0.546949   -2.147298   -1.771284
     13          6           0       -0.743065   -2.402889   -0.970091
     14          8           0       -1.177566   -3.557388   -0.822439
     15          8           0       -1.276134   -1.358489   -0.456635
     16          6           0        1.780091   -2.487331   -0.930460
     17          6           0        1.931136   -1.700718    0.368294
     18          8           0        2.823440   -2.062849    1.169140
     19          8           0        1.173053   -0.707391    0.619699
     20          1           0        1.767831   -3.548795   -0.681791
     21          1           0        2.684429   -2.321993   -1.523553
     22          1           0        0.553038   -2.769969   -2.668496
     23          1           0        1.495576   -0.371394   -2.338962
     24          1           0        0.111706   -0.558736   -4.216818
     25          1           0       -1.252124   -1.019862   -3.187757
     26          1           0       -2.226733    1.070617   -1.613709
     27          1           0       -1.263175    3.406746   -1.967421
     28          6           0       -1.736214    2.955070    0.084742
     29          6           0       -1.511445    1.990383    1.251539
     30          8           0       -1.933655    2.335261    2.374303
     31          8           0       -0.922275    0.871486    1.071265
     32          1           0       -1.503757    3.962634    0.433748
     33          1           0       -2.808541    2.944563   -0.132536
     34          8           0        2.038636   -4.732305    2.008503
     35          1           0        2.829723   -5.231727    2.239328
     36          1           0        2.363775   -3.837238    1.810702
     37          8           0        1.123173    6.350385   -2.288090
     38          1           0        1.102982    5.446572   -1.925378
     39          1           0        0.671400    6.880766   -1.623597
     40          8           0        3.728481    3.189040    0.275284
     41          1           0        3.618009    2.279157    0.580774
     42          1           0        2.901573    3.388876   -0.205905
     43          8           0        0.250150    3.806209    3.463394
     44          1           0       -0.010178    4.733402    3.438879
     45          1           0       -0.542824    3.319160    3.185394
     46          8           0        0.454588   -0.736637    3.753792
     47          1           0        0.290339   -1.686158    3.852153
     48          1           0        0.486281   -0.597021    2.792945
     49          8           0        3.929392    0.159177    2.587996
     50          1           0        3.197081    0.737065    2.828531
     51          1           0        3.502531   -0.602974    2.151965
     52          8           0        3.261377    0.519441   -2.540087
     53          1           0        3.106308    1.393062   -2.921312
     54          1           0        3.671576    0.703720   -1.686051
     55          8           0       -4.349081    3.339138    3.373019
     56          1           0       -4.362570    2.922356    4.240169
     57          1           0       -3.513325    3.038008    2.969707
     58          8           0       -3.056579   -1.300983    2.885550
     59          1           0       -2.390825   -1.951543    2.591422
     60          1           0       -3.593970   -1.797947    3.514262
     61          8           0        5.522134   -2.787830    0.640525
     62          1           0        5.686791   -2.684893   -0.301263
     63          1           0        4.576329   -2.585448    0.752525
     64          8           0       -3.797634   -4.657994   -0.048319
     65          1           0       -3.646959   -5.319964    0.633130
     66          1           0       -2.925589   -4.273050   -0.229005
     67          8           0       -1.254808   -3.384551    2.190224
     68          1           0       -1.289733   -4.237084    2.643835
     69          1           0       -1.210617   -3.594471    1.243190
     70          8           0       -4.099547    0.913056   -1.769096
     71          1           0       -4.523156    0.079746   -1.530843
     72          1           0       -4.508636    1.182695   -2.599393
     73          8           0       -2.534729   -4.192323   -3.424781
     74          1           0       -2.092239   -4.108285   -2.565794
     75          1           0       -1.906740   -3.830045   -4.061522
 ---------------------------------------------------------------------
 Rotational constants (GHZ):           0.0932159           0.0769770           0.0685777
 Leave Link  202 at Thu Mar 27 16:23:54 2025, MaxMem=  2013265920 cpu:               0.1 elap:               0.0
 (Enter /home2/zdrahala/programs/a/bin/G16C-h/l716.exe)
 Electric field and nuclear coordinate derivatives read from checkpoint file.
 Dipole        =-2.92063551D+00-2.15280516D+00-9.27620626D+00
 Polarizability= 3.91599347D+02-1.80433689D+01 5.07001088D+02
                -1.86280967D+00 1.31572537D+01 3.93116156D+02
 Full mass-weighted force constant matrix:
 Low frequencies --- -944.7597 -198.2081 -146.7724 -126.8179 -120.4491  -67.2444
 Low frequencies ---  -59.9623  -56.9714  -47.1282
 ******   17 imaginary frequencies (negative Signs) ****** 
 Diagonal vibrational polarizability:
     8731.5538144   11138.2890425   10702.2913321
 Harmonic frequencies (cm**-1), IR intensities (KM/Mole), Raman scattering
 activities (A**4/AMU), depolarization ratios for plane and unpolarized
 incident light, reduced masses (AMU), force constants (mDyne/A),
 and normal coordinates:
                      1                      2                      3
                      A                      A                      A
 Frequencies --   -944.7596              -198.1986              -146.7631
 Red. masses --      8.2280                 1.0669                 1.0656
 Frc consts  --      4.3270                 0.0247                 0.0135
 IR Inten    --   2724.1825                83.2459               191.4890
  Atom  AN      X      Y      Z        X      Y      Z        X      Y      Z
     1  27    -0.05  -0.13  -0.01     0.00  -0.00  -0.00    -0.00  -0.00  -0.00
     2   8     0.00   0.03  -0.00     0.01  -0.00   0.00    -0.00  -0.00  -0.00
     3   6     0.03  -0.02   0.04     0.01  -0.00  -0.00    -0.00  -0.00  -0.00
     4   8    -0.03   0.05  -0.04     0.01  -0.00  -0.00    -0.00  -0.00  -0.00
     5   6    -0.03   0.03  -0.06     0.01  -0.00   0.00    -0.00  -0.00  -0.00
     6   7    -0.17   0.27  -0.25     0.00   0.00   0.00    -0.00  -0.00  -0.00
     7   6    -0.04   0.06  -0.05     0.00   0.00   0.00    -0.00  -0.00  -0.00
     8   1     0.10  -0.05  -0.26     0.01   0.01  -0.00    -0.00  -0.00   0.00
     9   1     0.00   0.01  -0.06     0.01  -0.01   0.01    -0.00  -0.00  -0.00
    10   6    -0.02   0.05   0.06    -0.00  -0.00   0.00    -0.00  -0.00  -0.00
    11   7    -0.08   0.22   0.31    -0.00  -0.00  -0.00    -0.00  -0.00  -0.00
    12   6    -0.01   0.02   0.06     0.00  -0.00  -0.00    -0.00  -0.00  -0.00
    13   6     0.03  -0.01  -0.06     0.00  -0.00   0.00    -0.00  -0.00   0.00
    14   8     0.00   0.05   0.00     0.00  -0.00   0.00    -0.00  -0.00   0.00
    15   8     0.02   0.07   0.09    -0.00  -0.00   0.00    -0.00   0.00   0.00
    16   6     0.01  -0.01   0.02     0.00   0.00  -0.00    -0.00  -0.00  -0.00
    17   6     0.06  -0.01   0.06     0.00  -0.00  -0.00     0.00   0.00  -0.00
    18   8     0.06  -0.05   0.01    -0.00  -0.00   0.00     0.00   0.00  -0.00
    19   8     0.15  -0.08   0.12     0.00   0.00  -0.00     0.00  -0.00  -0.00
    20   1    -0.00  -0.02  -0.03     0.01   0.00  -0.01    -0.00  -0.00  -0.00
    21   1    -0.02  -0.00  -0.02     0.00   0.01  -0.00    -0.00  -0.00  -0.00
    22   1     0.07   0.25  -0.08     0.00  -0.00   0.00    -0.00  -0.00  -0.00
    23   1    -0.07   0.18   0.19    -0.01   0.00  -0.01    -0.00  -0.00  -0.00
    24   1     0.19  -0.07   0.20    -0.01  -0.00  -0.00    -0.00  -0.00  -0.00
    25   1     0.02   0.00   0.04    -0.01   0.00   0.00    -0.00  -0.00   0.00
    26   1    -0.13   0.25  -0.16     0.00   0.00   0.00    -0.00  -0.00   0.00
    27   1     0.12   0.25   0.08     0.01   0.00   0.00    -0.00  -0.00  -0.00
    28   6     0.01  -0.01  -0.02     0.00   0.00  -0.00     0.00   0.00  -0.00
    29   6     0.05   0.00  -0.07     0.00  -0.00  -0.00     0.00   0.00  -0.00
    30   8     0.03  -0.06  -0.04     0.00  -0.00  -0.00     0.00   0.00  -0.00
    31   8     0.09  -0.05  -0.15     0.00   0.00  -0.00     0.00   0.00   0.00
    32   1     0.01  -0.02   0.01     0.01   0.00   0.00     0.00   0.00  -0.00
    33   1    -0.00  -0.01   0.03     0.00   0.00  -0.00     0.00   0.00  -0.00
    34   8    -0.00   0.00   0.00    -0.00  -0.00   0.00    -0.00   0.00   0.00
    35   1    -0.00  -0.00   0.00    -0.00  -0.00   0.00    -0.00  -0.00  -0.00
    36   1     0.01  -0.00  -0.01    -0.00  -0.00   0.00    -0.00   0.00   0.00
    37   8     0.00  -0.00   0.00     0.00  -0.00  -0.00    -0.00  -0.00  -0.00
    38   1    -0.01  -0.02   0.01     0.00  -0.00   0.00    -0.00  -0.00  -0.00
    39   1     0.00  -0.00   0.00    -0.00  -0.00  -0.00    -0.00  -0.00  -0.00
    40   8    -0.00   0.00  -0.00     0.00  -0.03  -0.02    -0.00   0.00  -0.00
    41   1    -0.00   0.00   0.00    -0.03  -0.00   0.04     0.00   0.00  -0.00
    42   1    -0.02   0.01   0.00    -0.01  -0.01   0.01     0.00   0.00  -0.00
    43   8    -0.00  -0.00   0.00    -0.00   0.00  -0.00     0.00   0.00  -0.00
    44   1    -0.00  -0.00  -0.00    -0.00   0.00  -0.00     0.00   0.00  -0.00
    45   1     0.01  -0.01  -0.01    -0.00   0.00   0.00     0.00   0.00  -0.00
    46   8    -0.00   0.00  -0.00     0.00   0.00  -0.00     0.00   0.00  -0.00
    47   1     0.00   0.00   0.00     0.00   0.00   0.00     0.00   0.00   0.00
    48   1     0.06  -0.02  -0.01    -0.00   0.00  -0.00    -0.00   0.00  -0.00
    49   8    -0.00  -0.00  -0.00    -0.00   0.00  -0.00     0.00   0.00  -0.00
    50   1    -0.00  -0.00  -0.00    -0.01  -0.01   0.02    -0.00  -0.00  -0.01
    51   1    -0.00  -0.00   0.00     0.00   0.00  -0.00     0.00  -0.00  -0.00
    52   8    -0.00  -0.00   0.00    -0.01   0.02   0.04    -0.00  -0.00  -0.00
    53   1    -0.02  -0.00   0.01     0.08  -0.21  -0.52    -0.00   0.00   0.01
    54   1    -0.00  -0.00  -0.00    -0.56   0.56   0.20     0.00  -0.01  -0.00
    55   8     0.00  -0.00  -0.00    -0.00   0.00  -0.00     0.00   0.00  -0.00
    56   1     0.00   0.00   0.00     0.00   0.00  -0.00     0.00   0.00  -0.00
    57   1    -0.01  -0.02  -0.01    -0.00  -0.00  -0.00     0.00   0.00  -0.00
    58   8    -0.00   0.00   0.00    -0.00   0.00  -0.00     0.00   0.00   0.00
    59   1    -0.00   0.00  -0.00    -0.00  -0.00  -0.00     0.00   0.00   0.00
    60   1     0.00   0.00   0.00    -0.00   0.00  -0.00     0.00   0.00   0.00
    61   8     0.00   0.00  -0.00    -0.00  -0.00   0.00    -0.01  -0.06  -0.00
    62   1    -0.00   0.00  -0.00     0.00   0.01   0.00     0.24   0.96   0.15
    63   1    -0.01  -0.01   0.01    -0.00  -0.00   0.00    -0.00  -0.00  -0.01
    64   8    -0.00  -0.00   0.00    -0.00  -0.00   0.00    -0.00   0.00   0.00
    65   1    -0.01  -0.00  -0.00    -0.00  -0.00  -0.00     0.00  -0.00  -0.00
    66   1    -0.01  -0.00   0.02     0.00  -0.00   0.00    -0.00  -0.00   0.00
    67   8    -0.00  -0.00   0.00    -0.00   0.00   0.00     0.00   0.00   0.00
    68   1     0.00   0.00   0.01     0.00   0.00   0.00     0.00   0.00   0.00
    69   1    -0.00  -0.02   0.02     0.00  -0.00   0.00    -0.00   0.00   0.00
    70   8    -0.01  -0.00   0.00     0.00   0.00  -0.00    -0.00  -0.00   0.00
    71   1    -0.01  -0.00  -0.00     0.00  -0.00  -0.00    -0.00   0.00   0.00
    72   1    -0.00  -0.00  -0.00     0.00  -0.00  -0.00    -0.00  -0.00  -0.00
    73   8    -0.00  -0.00  -0.00     0.00  -0.00  -0.00    -0.00  -0.00   0.00
    74   1    -0.01  -0.04  -0.01     0.00  -0.00   0.00    -0.00  -0.00   0.00
    75   1    -0.00  -0.01  -0.01     0.00  -0.00   0.00    -0.00  -0.00   0.00
                      4                      5                      6
                      A                      A                      A
 Frequencies --   -126.8094              -120.4173               -67.1062
 Red. masses --      1.1104                 1.0142                 5.1790
 Frc consts  --      0.0105                 0.0087                 0.0137
 IR Inten    --    205.9698                72.2981                25.6676
  Atom  AN      X      Y      Z        X      Y      Z        X      Y      Z
     1  27     0.00   0.00  -0.00     0.00  -0.00   0.00     0.02   0.01   0.00
     2   8    -0.00   0.00   0.00    -0.00  -0.00  -0.00    -0.05   0.03  -0.05
     3   6    -0.00   0.00   0.00    -0.00  -0.00  -0.00    -0.03   0.02  -0.03
     4   8    -0.00   0.00  -0.00     0.00  -0.00  -0.00    -0.00   0.03  -0.02
     5   6    -0.00   0.00   0.00    -0.00  -0.00   0.00    -0.03  -0.01  -0.00
     6   7    -0.00   0.00   0.00    -0.00  -0.00   0.00    -0.01  -0.01   0.01
     7   6    -0.00   0.00   0.00    -0.01  -0.00   0.00    -0.01  -0.01   0.00
     8   1    -0.00   0.00   0.00    -0.01  -0.01   0.01    -0.02  -0.02   0.01
     9   1    -0.00   0.00  -0.00    -0.01  -0.00  -0.00    -0.02  -0.00   0.00
    10   6    -0.00   0.00  -0.00    -0.00  -0.00   0.00    -0.00  -0.00   0.00
    11   7    -0.00   0.00  -0.00    -0.00  -0.00   0.00     0.00   0.00  -0.00
    12   6     0.00   0.00  -0.00     0.00  -0.00   0.00     0.01   0.00   0.00
    13   6     0.00   0.00   0.00     0.00  -0.00   0.00     0.01   0.00   0.01
    14   8     0.01  -0.00   0.01     0.00  -0.00   0.00     0.01   0.01   0.00
    15   8     0.00   0.00   0.00     0.00  -0.00   0.00     0.02   0.00   0.02
    16   6     0.00   0.00  -0.00     0.00  -0.00   0.00     0.01   0.01   0.00
    17   6     0.00   0.00  -0.00     0.00  -0.00   0.00     0.01   0.00   0.00
    18   8     0.00   0.00  -0.00     0.00  -0.00   0.00    -0.01  -0.02   0.02
    19   8     0.00   0.00  -0.00     0.00  -0.00   0.00     0.04   0.03  -0.01
    20   1     0.00   0.00  -0.00     0.00  -0.00   0.00     0.01   0.00  -0.00
    21   1     0.00   0.00  -0.00     0.00   0.00   0.00     0.01   0.01  -0.00
    22   1    -0.00   0.00  -0.00     0.00  -0.00   0.00     0.01   0.00   0.00
    23   1    -0.00   0.00  -0.00    -0.00   0.00  -0.00     0.00   0.00  -0.01
    24   1    -0.00   0.00  -0.00    -0.00  -0.00   0.00    -0.00  -0.00   0.00
    25   1    -0.00   0.00   0.00    -0.00  -0.00   0.00     0.00  -0.01   0.01
    26   1    -0.00   0.00   0.00    -0.00  -0.01   0.01    -0.01  -0.03   0.01
    27   1    -0.00   0.00   0.00    -0.00  -0.00   0.00    -0.05  -0.02  -0.00
    28   6     0.00   0.00   0.00     0.00   0.00   0.00    -0.02  -0.01   0.00
    29   6     0.00  -0.00   0.00     0.00  -0.00   0.00     0.01  -0.00   0.01
    30   8     0.00  -0.00   0.00     0.00  -0.00   0.00     0.01  -0.01   0.01
    31   8     0.00  -0.00   0.00     0.00  -0.00   0.00     0.03   0.01   0.01
    32   1     0.00   0.00   0.00     0.01  -0.00   0.00    -0.03  -0.01  -0.00
    33   1     0.00   0.00   0.00     0.00   0.00   0.01    -0.02  -0.03   0.01
    34   8    -0.01   0.00  -0.00     0.00   0.00   0.00    -0.02  -0.02  -0.01
    35   1    -0.01  -0.00  -0.00     0.00   0.00   0.00    -0.02  -0.02  -0.01
    36   1    -0.01   0.00  -0.00     0.00   0.00   0.00    -0.02  -0.02  -0.01
    37   8    -0.00   0.00   0.00    -0.00  -0.00  -0.00    -0.00   0.05  -0.01
    38   1    -0.00   0.00   0.00    -0.00  -0.00  -0.00    -0.04   0.04  -0.05
    39   1    -0.00   0.00   0.00     0.00   0.00  -0.00     0.37   0.10   0.20
    40   8     0.00   0.00  -0.00    -0.00   0.00  -0.00    -0.05   0.16  -0.25
    41   1     0.00  -0.00  -0.00    -0.00   0.00  -0.00    -0.07   0.09  -0.47
    42   1     0.00   0.00   0.00    -0.00   0.00  -0.00    -0.05   0.25  -0.23
    43   8     0.00  -0.00   0.00    -0.00   0.00  -0.00     0.00  -0.00   0.01
    44   1     0.00  -0.00   0.00    -0.00   0.00   0.00    -0.00  -0.01   0.00
    45   1     0.00  -0.00   0.00     0.00   0.00   0.00     0.01  -0.01   0.01
    46   8    -0.00  -0.00  -0.00     0.00   0.00   0.00    -0.07  -0.06   0.02
    47   1    -0.00  -0.00  -0.00     0.00   0.00   0.00    -0.13  -0.05  -0.04
    48   1    -0.00   0.00  -0.00    -0.00   0.00   0.00    -0.04  -0.00   0.03
    49   8     0.00  -0.00  -0.00     0.00   0.00  -0.00     0.09  -0.26   0.28
    50   1     0.00   0.00  -0.00    -0.00   0.00  -0.00     0.19   0.07  -0.20
    51   1     0.00  -0.00  -0.00     0.00   0.00  -0.00     0.01  -0.16   0.17
    52   8    -0.00   0.00  -0.00    -0.00   0.00  -0.00     0.01   0.02   0.02
    53   1    -0.00   0.00  -0.00    -0.00   0.00  -0.00     0.00   0.00  -0.01
    54   1     0.00   0.00  -0.00    -0.00   0.00  -0.00    -0.02   0.06   0.03
    55   8     0.00  -0.00   0.00     0.00   0.00  -0.00     0.00  -0.00  -0.00
    56   1     0.00   0.00   0.00    -0.00   0.00  -0.00     0.01   0.01   0.00
    57   1     0.00  -0.00   0.00     0.00  -0.00   0.00     0.00  -0.00   0.00
    58   8     0.00  -0.00  -0.00     0.00   0.00   0.00    -0.03   0.00  -0.02
    59   1     0.00  -0.00  -0.00     0.00   0.00   0.00    -0.02   0.01  -0.01
    60   1     0.01  -0.00   0.00    -0.00  -0.00  -0.00    -0.03   0.00  -0.02
    61   8     0.00  -0.00  -0.00     0.00   0.00  -0.00    -0.00  -0.02  -0.00
    62   1     0.00   0.00  -0.00     0.00   0.00   0.00    -0.01  -0.01  -0.00
    63   1     0.00  -0.00  -0.00     0.00   0.00   0.00    -0.00  -0.02   0.01
    64   8    -0.00  -0.04  -0.07     0.00  -0.00   0.00     0.00   0.01  -0.00
    65   1    -0.23   0.67   0.68     0.00  -0.01  -0.01     0.00  -0.00  -0.01
    66   1     0.00   0.00   0.06     0.00  -0.00   0.00     0.01   0.00   0.00
    67   8     0.01  -0.00   0.00     0.00   0.00   0.00     0.00   0.01   0.01
    68   1     0.08  -0.00   0.00    -0.00   0.00   0.00    -0.01   0.01   0.01
    69   1     0.07  -0.00   0.00    -0.00  -0.00   0.00     0.01   0.01   0.01
    70   8    -0.00   0.00   0.00     0.00  -0.02   0.01    -0.01  -0.01   0.00
    71   1    -0.00  -0.00  -0.01    -0.04  -0.19  -0.67    -0.02   0.00   0.01
    72   1    -0.00   0.01   0.00     0.00   0.68   0.23    -0.00  -0.01  -0.00
    73   8    -0.00  -0.00   0.01     0.00  -0.00   0.00     0.00   0.01   0.00
    74   1     0.01  -0.01   0.01     0.00  -0.00   0.00     0.00   0.01   0.00
    75   1    -0.01   0.00   0.01     0.00  -0.00   0.00     0.01  -0.00   0.00
                      7                      8                      9
                      A                      A                      A
 Frequencies --    -59.9436               -56.9584               -44.7107
 Red. masses --      1.0790                 1.0229                 6.4607
 Frc consts  --      0.0023                 0.0020                 0.0076
 IR Inten    --    141.7082               177.8919                 5.0959
  Atom  AN      X      Y      Z        X      Y      Z        X      Y      Z
     1  27    -0.00  -0.00  -0.00     0.00  -0.00  -0.00     0.04  -0.00  -0.02
     2   8    -0.01  -0.00  -0.01    -0.00   0.00   0.00     0.01   0.02   0.01
     3   6    -0.01  -0.00  -0.01    -0.00  -0.00   0.00     0.03  -0.00  -0.04
     4   8    -0.01  -0.00  -0.00    -0.00   0.00   0.00     0.06  -0.02  -0.12
     5   6    -0.01  -0.00  -0.00    -0.00  -0.00   0.00     0.02  -0.01  -0.00
     6   7    -0.01  -0.01  -0.00     0.00  -0.00  -0.00     0.00  -0.01   0.01
     7   6    -0.01  -0.01  -0.00     0.00  -0.00  -0.00    -0.04  -0.02   0.00
     8   1    -0.01  -0.01  -0.00     0.00  -0.00  -0.00    -0.06  -0.01   0.02
     9   1    -0.01  -0.01  -0.00     0.00   0.00   0.00    -0.04  -0.04  -0.02
    10   6    -0.00  -0.01  -0.00     0.00   0.00  -0.00    -0.08  -0.03   0.01
    11   7    -0.00  -0.00  -0.00     0.00  -0.00  -0.00    -0.04  -0.03  -0.02
    12   6     0.00  -0.00   0.00     0.00  -0.00  -0.00    -0.04  -0.02  -0.00
    13   6     0.00  -0.00   0.00     0.00  -0.00  -0.00    -0.02  -0.00   0.04
    14   8     0.00  -0.00   0.00     0.00  -0.00  -0.00    -0.04   0.00   0.04
    15   8     0.00  -0.00   0.00     0.00  -0.00  -0.00     0.02   0.01   0.06
    16   6     0.00   0.00   0.00     0.00  -0.00  -0.00    -0.02  -0.02  -0.03
    17   6     0.00   0.00  -0.00     0.00  -0.00  -0.00     0.02  -0.02  -0.04
    18   8     0.00   0.01  -0.00     0.00  -0.00  -0.00     0.02  -0.03  -0.04
    19   8     0.00   0.00  -0.00     0.00  -0.00  -0.00     0.06   0.01  -0.05
    20   1     0.00   0.00   0.00     0.00  -0.00  -0.00    -0.01  -0.02  -0.03
    21   1     0.00   0.00   0.00     0.00  -0.00  -0.00    -0.03  -0.03  -0.05
    22   1     0.00  -0.00   0.00     0.00  -0.00  -0.00    -0.07  -0.04   0.01
    23   1    -0.00  -0.00  -0.00     0.00   0.00  -0.00    -0.05  -0.04  -0.07
    24   1    -0.00  -0.01  -0.00     0.00   0.00  -0.00    -0.11  -0.06  -0.01
    25   1    -0.00  -0.01   0.00     0.00  -0.00  -0.00    -0.09  -0.02   0.04
    26   1    -0.01  -0.01  -0.00     0.00  -0.00  -0.00     0.00  -0.00   0.04
    27   1    -0.01  -0.01  -0.01    -0.00  -0.00   0.00     0.01  -0.01  -0.00
    28   6    -0.01  -0.00  -0.00    -0.00  -0.00   0.00     0.05   0.01   0.01
    29   6    -0.00  -0.00  -0.00    -0.00  -0.00  -0.00     0.07   0.01   0.00
    30   8    -0.00   0.00  -0.00    -0.01  -0.01  -0.00     0.04  -0.01   0.00
    31   8    -0.00  -0.00  -0.00     0.00  -0.00  -0.00     0.12   0.03   0.01
    32   1    -0.01  -0.00  -0.01    -0.00  -0.00   0.00     0.07   0.00   0.00
    33   1    -0.01  -0.01  -0.00    -0.00  -0.00  -0.00     0.05   0.02   0.03
    34   8     0.00   0.00   0.00    -0.00  -0.00  -0.00     0.05  -0.01   0.00
    35   1     0.00   0.00  -0.00    -0.00  -0.00  -0.00     0.04   0.01   0.06
    36   1     0.00   0.00   0.00    -0.00  -0.00  -0.00     0.04  -0.02  -0.03
    37   8     0.01   0.01   0.01     0.00   0.00   0.00     0.00   0.02   0.03
    38   1    -0.01  -0.00  -0.03    -0.00   0.00   0.00     0.00   0.02   0.02
    39   1     0.86   0.15   0.48     0.02   0.00   0.01     0.01   0.02   0.03
    40   8    -0.01  -0.02   0.02    -0.00  -0.00   0.00    -0.08   0.29   0.30
    41   1    -0.01  -0.01   0.04    -0.00   0.00   0.00     0.06   0.25   0.25
    42   1    -0.01  -0.02   0.01    -0.00  -0.00   0.00    -0.05   0.16   0.20
    43   8    -0.00   0.00  -0.00    -0.01  -0.00  -0.00    -0.02   0.02   0.06
    44   1    -0.00   0.00  -0.00    -0.01  -0.00  -0.01    -0.04   0.01   0.05
    45   1    -0.00   0.00  -0.00    -0.01  -0.00  -0.00     0.00  -0.00   0.04
    46   8     0.01   0.01  -0.00    -0.00  -0.00  -0.00    -0.07   0.01   0.01
    47   1     0.01   0.01   0.00     0.00  -0.00  -0.00    -0.08   0.01  -0.03
    48   1     0.00   0.00  -0.00    -0.00  -0.00  -0.00    -0.12   0.06   0.02
    49   8    -0.01   0.03  -0.03    -0.00   0.00  -0.00    -0.05  -0.04   0.05
    50   1    -0.02  -0.00   0.02    -0.00  -0.00   0.00    -0.08  -0.06   0.03
    51   1    -0.00   0.02  -0.02    -0.00   0.00  -0.00    -0.01  -0.04   0.00
    52   8    -0.00   0.00   0.00     0.00   0.00   0.00    -0.09  -0.14  -0.21
    53   1    -0.01   0.00   0.00     0.00   0.00   0.00    -0.02  -0.21  -0.40
    54   1    -0.00  -0.00   0.00     0.00   0.00   0.00    -0.22   0.01  -0.18
    55   8    -0.00  -0.00   0.00    -0.02  -0.01  -0.01     0.00  -0.04  -0.05
    56   1    -0.01  -0.02  -0.01     0.46   0.80   0.39     0.01   0.01  -0.03
    57   1    -0.00   0.00  -0.00    -0.02  -0.02  -0.00     0.02  -0.03  -0.03
    58   8     0.00  -0.00   0.00     0.00  -0.01   0.00    -0.04   0.03  -0.02
    59   1     0.00  -0.00   0.00     0.00  -0.01   0.00    -0.05   0.02  -0.00
    60   1     0.00  -0.00   0.00     0.00  -0.01   0.00    -0.05   0.04  -0.01
    61   8     0.00   0.00   0.00     0.00   0.00   0.00     0.03   0.01   0.01
    62   1     0.00   0.00   0.00     0.00   0.00   0.00     0.05   0.00   0.01
    63   1     0.00   0.00   0.00     0.00  -0.00   0.00     0.03  -0.00  -0.02
    64   8     0.00  -0.00   0.00     0.00  -0.00  -0.00    -0.03  -0.02  -0.01
    65   1    -0.00  -0.00   0.00     0.00  -0.00  -0.00    -0.04  -0.02  -0.01
    66   1     0.00  -0.00   0.00     0.00  -0.00  -0.00    -0.03  -0.01   0.01
    67   8     0.00  -0.00   0.00     0.00  -0.00  -0.00    -0.05   0.02   0.02
    68   1     0.00  -0.00   0.00     0.00  -0.00  -0.00    -0.10   0.01   0.01
    69   1     0.00  -0.00   0.00     0.00  -0.00  -0.00    -0.06   0.03   0.02
    70   8    -0.01  -0.00  -0.00     0.00  -0.00  -0.00     0.00  -0.01   0.01
    71   1    -0.01  -0.00   0.00    -0.00  -0.00  -0.00    -0.00  -0.00   0.02
    72   1    -0.01  -0.01  -0.00     0.00  -0.00  -0.00     0.01  -0.02   0.00
    73   8     0.00  -0.00   0.00     0.00   0.00  -0.00     0.01  -0.01   0.01
    74   1     0.00  -0.00   0.00     0.00  -0.00  -0.00     0.01  -0.01   0.01
    75   1     0.00  -0.01   0.00     0.00   0.00  -0.00     0.02  -0.03   0.01
                     10                     11                     12
                      A                      A                      A
 Frequencies --    -36.4645               -29.7220               -23.6915
 Red. masses --      5.0295                 5.9699                 7.0568
 Frc consts  --      0.0039                 0.0031                 0.0023
 IR Inten    --      7.1077                20.1202                 1.3630
  Atom  AN      X      Y      Z        X      Y      Z        X      Y      Z
     1  27    -0.01  -0.00   0.01    -0.04  -0.00  -0.00    -0.01  -0.02   0.02
     2   8     0.02  -0.02  -0.01     0.06  -0.03   0.02    -0.01  -0.01   0.08
     3   6     0.01  -0.01  -0.00     0.04  -0.02   0.03    -0.01  -0.01   0.08
     4   8     0.00  -0.01   0.01    -0.00  -0.02   0.07    -0.02  -0.01   0.09
     5   6     0.01   0.00  -0.00     0.04   0.02  -0.01    -0.01  -0.00   0.08
     6   7     0.00  -0.00   0.00     0.02   0.02  -0.02    -0.01   0.01   0.05
     7   6     0.01  -0.01   0.00     0.04   0.02  -0.02    -0.02   0.04   0.04
     8   1     0.01  -0.00   0.00     0.06   0.03  -0.03    -0.02   0.05   0.05
     9   1     0.01  -0.01   0.00     0.05   0.01  -0.00    -0.03   0.05   0.05
    10   6     0.00  -0.01   0.01     0.03   0.02  -0.01    -0.01   0.05   0.01
    11   7    -0.01  -0.01   0.01     0.01   0.01   0.01     0.00   0.03  -0.00
    12   6    -0.03  -0.01   0.02    -0.00   0.01  -0.00     0.02   0.02  -0.04
    13   6    -0.04   0.00   0.01    -0.03   0.00  -0.04     0.02  -0.01  -0.04
    14   8    -0.06   0.01  -0.00    -0.02  -0.00  -0.05     0.04  -0.02  -0.06
    15   8    -0.03   0.01   0.01    -0.06   0.00  -0.07     0.00  -0.03  -0.03
    16   6    -0.03  -0.02   0.02    -0.02   0.01   0.03     0.02   0.02  -0.04
    17   6    -0.02  -0.01   0.01    -0.06  -0.01   0.04     0.01  -0.02  -0.02
    18   8     0.01   0.01  -0.01    -0.06   0.00   0.04     0.01  -0.03  -0.03
    19   8    -0.02  -0.01   0.02    -0.10  -0.04   0.05    -0.01  -0.04   0.00
    20   1    -0.05  -0.02   0.04    -0.02   0.00   0.01     0.04   0.01  -0.08
    21   1    -0.03  -0.05   0.02    -0.01   0.02   0.05     0.02   0.05  -0.04
    22   1    -0.03  -0.01   0.02     0.02   0.02  -0.01     0.03   0.04  -0.05
    23   1    -0.00  -0.02   0.02     0.01   0.01   0.02    -0.01   0.05  -0.00
    24   1     0.01  -0.01   0.01     0.05   0.01   0.00    -0.01   0.07   0.00
    25   1    -0.00  -0.00   0.00     0.02   0.02  -0.03    -0.00   0.04   0.00
    26   1     0.00   0.01  -0.00     0.02   0.04  -0.04    -0.01   0.01   0.05
    27   1     0.02  -0.00  -0.01     0.08   0.02  -0.02    -0.02   0.02   0.10
    28   6     0.01   0.01  -0.01     0.01   0.03  -0.04    -0.01  -0.04   0.09
    29   6     0.00   0.02  -0.00    -0.05   0.02  -0.04     0.01  -0.06   0.07
    30   8     0.01   0.03  -0.00    -0.07   0.02  -0.05     0.06  -0.06   0.09
    31   8    -0.01   0.01   0.00    -0.10  -0.01  -0.03    -0.03  -0.07   0.04
    32   1     0.02   0.01  -0.01     0.04   0.02  -0.02    -0.02  -0.04   0.10
    33   1     0.01   0.02  -0.01     0.02   0.07  -0.07    -0.01  -0.05   0.10
    34   8     0.37  -0.01   0.12    -0.04  -0.01   0.05     0.03   0.01   0.08
    35   1     0.41   0.15   0.35    -0.02  -0.01  -0.01     0.03   0.04   0.12
    36   1     0.26   0.01   0.04    -0.05  -0.00   0.05     0.01  -0.00   0.03
    37   8    -0.02  -0.00   0.02    -0.03  -0.05  -0.02     0.10  -0.10  -0.14
    38   1    -0.00  -0.01   0.00     0.01  -0.05  -0.01     0.06  -0.07  -0.05
    39   1     0.00  -0.01   0.04     0.13  -0.03   0.07     0.19  -0.01  -0.16
    40   8     0.03  -0.03  -0.06     0.01   0.15   0.08     0.00   0.00   0.04
    41   1     0.01  -0.02  -0.06     0.06   0.13   0.06     0.02  -0.00   0.03
    42   1     0.02  -0.01  -0.05     0.01   0.10   0.05    -0.00  -0.00   0.05
    43   8     0.02   0.00   0.00    -0.05   0.02  -0.06    -0.05   0.38  -0.26
    44   1     0.02   0.01   0.01    -0.04   0.02  -0.05    -0.19   0.34  -0.32
    45   1     0.01   0.01  -0.00    -0.06   0.03  -0.05    -0.01   0.23  -0.11
    46   8     0.03   0.00   0.01     0.26   0.12  -0.01    -0.07  -0.06   0.02
    47   1     0.08   0.00   0.06     0.37   0.12   0.15    -0.07  -0.06  -0.01
    48   1     0.05  -0.04   0.01     0.30  -0.04  -0.03    -0.09  -0.03   0.02
    49   8     0.02  -0.01   0.01     0.10  -0.12   0.10    -0.02  -0.04   0.02
    50   1     0.03   0.01  -0.01     0.15  -0.06   0.14    -0.03  -0.04  -0.01
    51   1     0.01   0.00   0.00     0.03  -0.06   0.08    -0.01  -0.04   0.00
    52   8     0.01  -0.03   0.04    -0.04  -0.02  -0.09    -0.05   0.08  -0.09
    53   1     0.00  -0.02   0.05     0.03  -0.05  -0.20    -0.03   0.09  -0.08
    54   1     0.01  -0.03   0.04    -0.06   0.04  -0.10    -0.00   0.07  -0.11
    55   8    -0.00  -0.01   0.02    -0.04  -0.00   0.03     0.07   0.05   0.03
    56   1     0.03   0.01   0.03    -0.02  -0.03   0.01     0.00   0.02   0.01
    57   1     0.00   0.00   0.01    -0.06   0.01  -0.00     0.07   0.01   0.06
    58   8    -0.04   0.06   0.01     0.19  -0.05   0.13    -0.07  -0.03  -0.07
    59   1    -0.08   0.02  -0.03     0.14  -0.08   0.07    -0.04  -0.01  -0.07
    60   1    -0.02   0.08   0.04     0.19  -0.05   0.14    -0.06  -0.05  -0.08
    61   8     0.03   0.08  -0.05    -0.05   0.01  -0.01     0.01  -0.02  -0.02
    62   1     0.02   0.09  -0.05    -0.08   0.02  -0.01     0.02  -0.02  -0.02
    63   1     0.03   0.07  -0.04    -0.05   0.00   0.02     0.01  -0.02  -0.03
    64   8    -0.11  -0.02  -0.13    -0.02  -0.00  -0.01     0.04  -0.02  -0.03
    65   1    -0.16   0.04  -0.07     0.01  -0.00  -0.01     0.03  -0.00  -0.02
    66   1    -0.10  -0.02  -0.09    -0.02   0.00  -0.03     0.04  -0.02  -0.04
    67   8    -0.20  -0.04  -0.07     0.04  -0.09  -0.08    -0.01   0.00  -0.03
    68   1    -0.38  -0.06  -0.12     0.15  -0.09  -0.07    -0.02   0.00  -0.03
    69   1    -0.21   0.00  -0.08     0.01  -0.09  -0.08     0.02   0.00  -0.03
    70   8     0.00   0.01   0.01     0.02   0.03  -0.02    -0.01  -0.01   0.04
    71   1     0.00   0.01   0.01     0.04   0.02  -0.03    -0.00  -0.01   0.04
    72   1     0.00   0.01   0.01     0.01   0.03  -0.01    -0.01  -0.01   0.04
    73   8     0.01   0.01  -0.03    -0.01  -0.02  -0.03     0.02   0.01  -0.04
    74   1    -0.00   0.01  -0.03    -0.01  -0.00  -0.03     0.02   0.00  -0.04
    75   1     0.02   0.00  -0.03    -0.02   0.02  -0.02     0.00   0.04  -0.04
                     13                     14                     15
                      A                      A                      A
 Frequencies --    -19.9411               -18.1828               -12.1119
 Red. masses --      6.8400                 6.0777                 7.1974
 Frc consts  --      0.0016                 0.0012                 0.0006
 IR Inten    --      0.9369                15.3300                 3.6293
  Atom  AN      X      Y      Z        X      Y      Z        X      Y      Z
     1  27     0.01  -0.00  -0.01     0.04   0.00  -0.00    -0.00  -0.02  -0.00
     2   8     0.08  -0.03  -0.05    -0.09   0.05  -0.02     0.00  -0.02  -0.01
     3   6     0.06  -0.02  -0.03    -0.06   0.02  -0.04    -0.00  -0.02   0.00
     4   8     0.05  -0.03  -0.02    -0.01   0.03  -0.09    -0.01  -0.02   0.01
     5   6     0.06   0.01  -0.03    -0.06  -0.03   0.01    -0.00  -0.02  -0.00
     6   7     0.04   0.01  -0.02    -0.03  -0.04   0.02    -0.00  -0.02  -0.00
     7   6     0.03  -0.01  -0.02    -0.05  -0.03   0.01     0.00  -0.01  -0.00
     8   1     0.04  -0.00  -0.02    -0.06  -0.04   0.02    -0.00  -0.02  -0.00
     9   1     0.05  -0.02  -0.02    -0.06  -0.01  -0.00    -0.00  -0.01  -0.00
    10   6     0.01  -0.02  -0.00    -0.03  -0.02   0.00     0.01  -0.01  -0.00
    11   7     0.00  -0.02   0.00    -0.00  -0.01  -0.01     0.01  -0.01  -0.00
    12   6    -0.03  -0.02   0.01    -0.00  -0.01  -0.01     0.02  -0.01  -0.01
    13   6    -0.03   0.01   0.02     0.01  -0.00   0.01     0.02  -0.02  -0.02
    14   8    -0.04   0.01   0.03    -0.03   0.00  -0.03     0.03  -0.02  -0.02
    15   8    -0.02   0.02  -0.00     0.06  -0.01   0.07     0.01  -0.02  -0.02
    16   6    -0.03  -0.03   0.02     0.01  -0.02  -0.02     0.02  -0.00  -0.00
    17   6    -0.02  -0.02   0.01     0.04  -0.01  -0.03     0.00  -0.01   0.00
    18   8    -0.01  -0.02   0.00     0.01  -0.05  -0.02     0.00  -0.00   0.01
    19   8    -0.01  -0.02   0.00     0.10   0.04  -0.05    -0.01  -0.02   0.00
    20   1    -0.05  -0.03   0.03     0.00  -0.02  -0.02     0.03  -0.00  -0.01
    21   1    -0.03  -0.06   0.01    -0.00  -0.03  -0.03     0.02   0.01   0.00
    22   1    -0.04  -0.03   0.02    -0.01  -0.02  -0.01     0.03  -0.01  -0.01
    23   1     0.01  -0.04   0.01    -0.01  -0.02  -0.03     0.01   0.00  -0.01
    24   1     0.01  -0.03  -0.00    -0.04  -0.01  -0.01     0.01  -0.01  -0.00
    25   1     0.00  -0.00  -0.00    -0.02  -0.03   0.01     0.01  -0.02  -0.00
    26   1     0.03   0.03  -0.02    -0.02  -0.06   0.04    -0.00  -0.02  -0.01
    27   1     0.07   0.01  -0.03    -0.10  -0.04   0.01    -0.00  -0.02  -0.00
    28   6     0.07   0.03  -0.03    -0.04  -0.05   0.02    -0.00  -0.02  -0.00
    29   6     0.04   0.03  -0.02     0.04  -0.02   0.03     0.00  -0.02  -0.00
    30   8     0.03   0.04  -0.03     0.05  -0.03   0.03     0.02  -0.01   0.00
    31   8     0.02   0.02  -0.02     0.10   0.01   0.03    -0.02  -0.03  -0.01
    32   1     0.09   0.03  -0.03    -0.07  -0.03   0.01    -0.01  -0.02  -0.00
    33   1     0.07   0.06  -0.03    -0.04  -0.09   0.05    -0.00  -0.02  -0.00
    34   8    -0.02  -0.05  -0.11    -0.09  -0.01   0.01    -0.03   0.04   0.12
    35   1    -0.03  -0.08  -0.14    -0.11  -0.03  -0.00    -0.03   0.05   0.13
    36   1    -0.01  -0.05  -0.06    -0.07  -0.02  -0.01    -0.03   0.03   0.08
    37   8    -0.16   0.09   0.24    -0.00   0.07   0.02    -0.28   0.12   0.32
    38   1    -0.07   0.04   0.13    -0.04   0.06   0.01    -0.17   0.07   0.19
    39   1    -0.16  -0.03   0.33    -0.15   0.04  -0.06    -0.29  -0.02   0.43
    40   8     0.07  -0.05  -0.07    -0.07  -0.10  -0.01    -0.00   0.02   0.01
    41   1     0.06  -0.05  -0.06    -0.13  -0.09  -0.00     0.01   0.01   0.01
    42   1     0.08  -0.04  -0.06    -0.06  -0.05  -0.01    -0.00  -0.00   0.00
    43   8    -0.17   0.32  -0.05    -0.05   0.12   0.01     0.14  -0.03  -0.18
    44   1    -0.27   0.29  -0.09    -0.12   0.10  -0.02     0.17  -0.02  -0.16
    45   1    -0.10   0.22  -0.06    -0.01   0.05   0.02     0.10  -0.01  -0.08
    46   8    -0.01  -0.03  -0.02     0.11   0.27   0.09    -0.01  -0.02  -0.00
    47   1    -0.04  -0.02  -0.04     0.29   0.25   0.20    -0.01  -0.02  -0.00
    48   1     0.01  -0.02  -0.02    -0.03   0.20   0.08     0.00  -0.02  -0.00
    49   8     0.01  -0.01  -0.02    -0.05  -0.02  -0.00     0.01  -0.00  -0.00
    50   1     0.02   0.01  -0.04    -0.10  -0.12   0.08     0.01   0.00  -0.01
    51   1    -0.00  -0.01  -0.01    -0.00  -0.05  -0.01     0.00  -0.00   0.00
    52   8     0.04  -0.09   0.05     0.03   0.03   0.08    -0.02   0.01  -0.06
    53   1     0.04  -0.09   0.05    -0.04   0.06   0.17    -0.01   0.01  -0.07
    54   1     0.03  -0.09   0.05     0.02  -0.02   0.10    -0.01   0.02  -0.06
    55   8    -0.07  -0.23   0.04     0.02  -0.01  -0.05     0.12   0.31  -0.08
    56   1     0.07  -0.13   0.09    -0.01  -0.00  -0.04    -0.04   0.20  -0.14
    57   1    -0.04  -0.13   0.01     0.03  -0.02  -0.01     0.10   0.19  -0.05
    58   8     0.00   0.04  -0.00     0.09  -0.02   0.09    -0.01  -0.01  -0.03
    59   1     0.01   0.04   0.01     0.03  -0.06   0.04    -0.01  -0.01  -0.03
    60   1    -0.00   0.04  -0.00     0.10   0.01   0.12    -0.02  -0.01  -0.04
    61   8     0.00   0.03  -0.02     0.00  -0.11   0.05    -0.02  -0.06   0.03
    62   1    -0.01   0.04  -0.02     0.03  -0.13   0.05    -0.00  -0.07   0.03
    63   1    -0.00   0.01  -0.01     0.00  -0.09   0.02    -0.01  -0.04   0.02
    64   8    -0.01  -0.03   0.06    -0.09   0.08  -0.12     0.03  -0.03  -0.02
    65   1     0.02  -0.02   0.07    -0.13   0.04  -0.15     0.03  -0.03  -0.02
    66   1    -0.02  -0.01   0.05    -0.07   0.05  -0.09     0.03  -0.03  -0.02
    67   8     0.02   0.03   0.04    -0.08  -0.07  -0.08    -0.01  -0.01  -0.02
    68   1     0.01   0.04   0.04    -0.00  -0.07  -0.08     0.01  -0.01  -0.01
    69   1     0.01   0.02   0.04    -0.10  -0.06  -0.08     0.01  -0.02  -0.01
    70   8     0.03   0.05  -0.00    -0.02  -0.08   0.04    -0.00  -0.01  -0.00
    71   1     0.03   0.05   0.00    -0.02  -0.09   0.04    -0.00  -0.01   0.00
    72   1     0.03   0.05  -0.00    -0.03  -0.08   0.04    -0.00  -0.01  -0.00
    73   8    -0.04  -0.01   0.04     0.06   0.01  -0.06     0.02  -0.02  -0.02
    74   1    -0.04  -0.00   0.04     0.05   0.02  -0.06     0.02  -0.02  -0.02
    75   1    -0.04  -0.01   0.03     0.08  -0.02  -0.06     0.03  -0.02  -0.02
                     16                     17                     18
                      A                      A                      A
 Frequencies --     -7.4644                -2.5738                13.7958
 Red. masses --      7.0244                 6.7926                 7.0528
 Frc consts  --      0.0002                 0.0000                 0.0008
 IR Inten    --      3.6111                 3.2991                 3.1676
  Atom  AN      X      Y      Z        X      Y      Z        X      Y      Z
     1  27     0.00  -0.01   0.01     0.01   0.01  -0.01     0.00  -0.01   0.01
     2   8     0.01  -0.01   0.02     0.04  -0.01  -0.03    -0.03   0.00   0.01
     3   6     0.01  -0.01   0.02     0.02   0.00  -0.01    -0.02  -0.00   0.01
     4   8     0.01  -0.01   0.02     0.01  -0.00  -0.00    -0.01   0.00   0.01
     5   6     0.01  -0.00   0.02     0.02   0.01   0.00    -0.02  -0.02  -0.00
     6   7     0.00   0.00   0.02     0.00   0.02   0.00    -0.00  -0.02  -0.00
     7   6    -0.00   0.00   0.02    -0.02   0.02  -0.00     0.01  -0.02   0.00
     8   1    -0.00   0.01   0.02    -0.03   0.01   0.01     0.01  -0.03  -0.00
     9   1    -0.00   0.00   0.02    -0.02   0.02  -0.01     0.00  -0.02   0.00
    10   6    -0.01   0.00   0.01    -0.02   0.02  -0.01     0.01  -0.02   0.01
    11   7    -0.01  -0.01   0.00    -0.00   0.02  -0.02     0.01  -0.01   0.01
    12   6    -0.01  -0.01  -0.00     0.01   0.02  -0.02     0.03  -0.01   0.02
    13   6    -0.01  -0.00   0.01     0.02   0.01  -0.02     0.03  -0.01   0.02
    14   8    -0.01  -0.00   0.01     0.03   0.00  -0.02     0.03  -0.01   0.02
    15   8    -0.01  -0.00   0.01     0.01   0.00  -0.02     0.02  -0.02   0.01
    16   6    -0.01  -0.01  -0.01     0.02   0.02  -0.03     0.03   0.01   0.02
    17   6     0.00  -0.02  -0.01     0.02   0.01  -0.02     0.02   0.01   0.01
    18   8     0.01  -0.02  -0.02     0.02   0.01  -0.03     0.03   0.03   0.01
    19   8     0.00  -0.02   0.00     0.00  -0.00  -0.01     0.01   0.00   0.02
    20   1    -0.01  -0.01  -0.01     0.03   0.02  -0.04     0.04   0.01   0.03
    21   1    -0.01  -0.02  -0.02     0.02   0.04  -0.03     0.03   0.01   0.02
    22   1    -0.02  -0.00  -0.00     0.01   0.02  -0.02     0.03  -0.01   0.02
    23   1    -0.01  -0.01   0.00    -0.01   0.03  -0.03     0.01  -0.00   0.01
    24   1    -0.01   0.00   0.01    -0.03   0.02  -0.01     0.02  -0.02   0.01
    25   1    -0.01   0.01   0.01    -0.01   0.01   0.01     0.02  -0.03   0.01
    26   1     0.00   0.00   0.02     0.00   0.02   0.02    -0.00  -0.03  -0.01
    27   1     0.01   0.00   0.03     0.02   0.02   0.01    -0.02  -0.02  -0.01
    28   6     0.01  -0.01   0.02     0.03   0.02   0.01    -0.03  -0.02  -0.01
    29   6    -0.01  -0.02   0.01     0.01  -0.00  -0.00    -0.03  -0.02  -0.01
    30   8    -0.04  -0.04   0.01    -0.01  -0.01  -0.00    -0.04  -0.02  -0.01
    31   8     0.00  -0.01   0.01     0.01  -0.00  -0.01    -0.02  -0.01  -0.00
    32   1     0.03  -0.01   0.04     0.06   0.01   0.02    -0.04  -0.02  -0.01
    33   1     0.01   0.02   0.02     0.03   0.05   0.02    -0.03  -0.03  -0.02
    34   8     0.09  -0.08  -0.17    -0.07   0.15   0.34     0.05   0.01  -0.02
    35   1     0.10  -0.08  -0.18    -0.06   0.18   0.37     0.05   0.01  -0.04
    36   1     0.08  -0.07  -0.12    -0.07   0.12   0.20     0.04   0.02   0.00
    37   8     0.03  -0.02   0.00    -0.01   0.01   0.01    -0.01   0.01   0.03
    38   1     0.02  -0.02   0.01     0.01   0.00  -0.00    -0.02   0.01   0.02
    39   1     0.04  -0.01   0.00     0.00  -0.01   0.04    -0.07  -0.00   0.00
    40   8     0.03  -0.04  -0.02     0.07  -0.01  -0.10    -0.02   0.07   0.02
    41   1     0.02  -0.04  -0.02     0.08  -0.01  -0.10     0.02   0.06   0.00
    42   1     0.02  -0.03  -0.01     0.05  -0.01  -0.08    -0.03   0.05   0.01
    43   8    -0.24   0.08   0.21    -0.19   0.02   0.25    -0.04   0.02  -0.04
    44   1    -0.32   0.06   0.14    -0.22   0.01   0.21    -0.05   0.01  -0.05
    45   1    -0.16   0.01   0.10    -0.12  -0.01   0.11    -0.04   0.01  -0.02
    46   8     0.03  -0.04  -0.01     0.01  -0.08  -0.03     0.01  -0.18  -0.04
    47   1     0.02  -0.04  -0.01    -0.03  -0.07  -0.05    -0.07  -0.17  -0.10
    48   1     0.03  -0.04  -0.01     0.04  -0.06  -0.03     0.08  -0.14  -0.04
    49   8     0.01  -0.03   0.00     0.09   0.02  -0.10     0.08   0.05  -0.06
    50   1     0.02  -0.03  -0.00     0.11   0.06  -0.11     0.10   0.08  -0.07
    51   1     0.01  -0.03  -0.01     0.06   0.02  -0.07     0.06   0.05  -0.03
    52   8    -0.00  -0.01   0.01    -0.03   0.04  -0.13    -0.01   0.01  -0.01
    53   1    -0.00  -0.01   0.02    -0.02   0.04  -0.13     0.00  -0.01  -0.05
    54   1     0.01  -0.03   0.00     0.02   0.02  -0.15    -0.02   0.04  -0.02
    55   8     0.00   0.35  -0.27    -0.05  -0.06  -0.05    -0.03  -0.03   0.02
    56   1    -0.23   0.25  -0.32    -0.04  -0.02  -0.04    -0.02  -0.05   0.01
    57   1     0.00   0.20  -0.17    -0.04  -0.04  -0.03    -0.03  -0.03   0.01
    58   8     0.03  -0.05   0.05    -0.01  -0.01  -0.02     0.01  -0.05  -0.00
    59   1     0.04  -0.05   0.04    -0.02  -0.01  -0.02     0.02  -0.04   0.00
    60   1     0.04  -0.06   0.05    -0.02  -0.01  -0.02     0.01  -0.05  -0.00
    61   8     0.04   0.10  -0.08    -0.05  -0.22  -0.02    -0.00  -0.08  -0.01
    62   1     0.02   0.12  -0.08    -0.04  -0.23  -0.02     0.00  -0.08  -0.01
    63   1     0.04   0.06  -0.05    -0.03  -0.13  -0.03     0.01  -0.04  -0.00
    64   8    -0.01   0.01   0.04     0.04  -0.03  -0.01    -0.17   0.51   0.03
    65   1    -0.01   0.02   0.05     0.05  -0.05  -0.03    -0.32   0.44  -0.01
    66   1    -0.01   0.01   0.03     0.03  -0.02  -0.01    -0.08   0.30   0.02
    67   8     0.05  -0.03   0.02    -0.01  -0.00  -0.02     0.03  -0.06   0.02
    68   1     0.02  -0.04   0.00     0.03  -0.00  -0.02    -0.00  -0.06   0.02
    69   1     0.03  -0.02   0.01     0.02  -0.00  -0.02     0.04  -0.05   0.02
    70   8     0.00  -0.01   0.03     0.00   0.02   0.11     0.00  -0.04  -0.08
    71   1     0.01  -0.01   0.03     0.02   0.01   0.10    -0.01  -0.03  -0.08
    72   1    -0.00  -0.00   0.04    -0.04   0.04   0.13     0.03  -0.06  -0.11
    73   8    -0.03  -0.00   0.02     0.01   0.01  -0.01     0.06  -0.08   0.02
    74   1    -0.02  -0.00   0.02     0.02   0.00  -0.01     0.05  -0.06   0.03
    75   1    -0.03   0.00   0.02     0.01   0.01  -0.01     0.05  -0.06   0.03
                     19                     20                     21
                      A                      A                      A
 Frequencies --     16.6747                19.2913                19.6120
 Red. masses --      5.9297                 7.6315                 7.3657
 Frc consts  --      0.0010                 0.0017                 0.0017
 IR Inten    --      6.5859                 7.3869                 3.0362
  Atom  AN      X      Y      Z        X      Y      Z        X      Y      Z
     1  27    -0.01   0.00   0.01    -0.00   0.00   0.00     0.00  -0.02  -0.03
     2   8     0.05  -0.03  -0.05    -0.00  -0.01  -0.05     0.04  -0.03  -0.01
     3   6     0.03  -0.01  -0.01    -0.00  -0.00  -0.03     0.03  -0.02  -0.01
     4   8     0.01  -0.01   0.02    -0.00   0.00  -0.00     0.02  -0.02  -0.00
     5   6     0.03   0.01  -0.01    -0.00  -0.01  -0.02     0.03  -0.01  -0.01
     6   7     0.00   0.01   0.00     0.00  -0.01  -0.01     0.02   0.00  -0.02
     7   6    -0.02  -0.01   0.00     0.01  -0.02  -0.01     0.02   0.01  -0.03
     8   1    -0.03  -0.02   0.01     0.01  -0.03  -0.01     0.02   0.02  -0.03
     9   1    -0.02  -0.00  -0.02     0.01  -0.02  -0.01     0.02   0.01  -0.02
    10   6    -0.01  -0.00   0.01     0.02  -0.02   0.01     0.02   0.01  -0.04
    11   7     0.00   0.01   0.01     0.01  -0.01   0.01     0.01  -0.00  -0.03
    12   6     0.02   0.01   0.01     0.02  -0.01   0.02     0.00  -0.01  -0.05
    13   6     0.01   0.00  -0.01     0.01  -0.01   0.01    -0.00  -0.01  -0.06
    14   8     0.01  -0.00  -0.02     0.01  -0.01   0.00     0.00  -0.01  -0.05
    15   8    -0.00  -0.00  -0.01     0.01  -0.01   0.01    -0.01  -0.01  -0.07
    16   6     0.01   0.02   0.02     0.01   0.01   0.04    -0.00  -0.02  -0.04
    17   6    -0.02  -0.00   0.03    -0.01   0.01   0.04    -0.01  -0.04  -0.04
    18   8    -0.03  -0.01   0.04    -0.02   0.02   0.05    -0.02  -0.04  -0.03
    19   8    -0.03  -0.01   0.03    -0.01   0.01   0.03    -0.01  -0.04  -0.04
    20   1     0.02   0.01   0.00     0.02   0.01   0.04    -0.01  -0.03  -0.06
    21   1     0.02   0.04   0.03     0.02   0.01   0.05     0.00  -0.02  -0.04
    22   1     0.03   0.01   0.01     0.03  -0.01   0.03     0.00   0.00  -0.05
    23   1    -0.00   0.02  -0.01     0.01  -0.00   0.01     0.01  -0.01  -0.03
    24   1    -0.01  -0.01   0.01     0.02  -0.03   0.01     0.02   0.02  -0.04
    25   1    -0.00  -0.01   0.02     0.02  -0.03   0.01     0.02   0.01  -0.05
    26   1     0.00   0.02   0.03     0.00  -0.01  -0.02     0.02   0.01  -0.03
    27   1     0.03   0.01  -0.01    -0.00  -0.02  -0.03     0.03   0.00  -0.00
    28   6     0.04   0.03  -0.00    -0.00   0.01  -0.03     0.03  -0.02  -0.00
    29   6     0.01   0.02  -0.01    -0.00   0.02  -0.02     0.03  -0.03  -0.01
    30   8     0.01   0.03  -0.01     0.01   0.04  -0.02     0.04  -0.03  -0.01
    31   8    -0.02   0.00  -0.01    -0.02   0.01  -0.01     0.01  -0.04  -0.03
    32   1     0.07   0.02  -0.00     0.00   0.01  -0.04     0.04  -0.02   0.01
    33   1     0.04   0.06  -0.00    -0.00   0.01  -0.03     0.03  -0.01  -0.00
    34   8    -0.03  -0.07  -0.13    -0.01  -0.07  -0.17    -0.06   0.05   0.17
    35   1    -0.04  -0.08  -0.14    -0.02  -0.09  -0.18    -0.06   0.06   0.18
    36   1    -0.02  -0.05  -0.06    -0.00  -0.05  -0.07    -0.06   0.02   0.07
    37   8    -0.05  -0.03  -0.04    -0.13  -0.04  -0.11    -0.11  -0.04  -0.03
    38   1    -0.01  -0.03  -0.04    -0.08  -0.03  -0.09    -0.06  -0.04  -0.02
    39   1     0.04  -0.03   0.03     0.03  -0.01  -0.02     0.06  -0.03   0.08
    40   8     0.05  -0.03  -0.06    -0.00   0.08  -0.03     0.01  -0.09   0.02
    41   1     0.06  -0.02  -0.04     0.03   0.08  -0.03    -0.03  -0.08   0.03
    42   1     0.05  -0.03  -0.05    -0.01   0.05  -0.04     0.03  -0.07   0.01
    43   8     0.06  -0.04  -0.02    -0.12   0.07   0.16    -0.07  -0.02   0.15
    44   1     0.09  -0.03   0.00    -0.16   0.06   0.12    -0.09  -0.03   0.14
    45   1     0.04  -0.00  -0.01    -0.06   0.03   0.05    -0.02  -0.04   0.06
    46   8    -0.01  -0.01   0.00     0.02  -0.05  -0.01    -0.08   0.13   0.02
    47   1     0.00  -0.01   0.02     0.01  -0.05  -0.00    -0.02   0.12   0.04
    48   1     0.02  -0.03   0.00     0.07  -0.07  -0.01    -0.15   0.12   0.01
    49   8    -0.03   0.02   0.01     0.05   0.07  -0.07    -0.16  -0.07   0.12
    50   1    -0.02   0.04  -0.02     0.07   0.10  -0.07    -0.20  -0.11   0.10
    51   1    -0.03   0.02   0.03     0.02   0.06  -0.02    -0.10  -0.07   0.06
    52   8    -0.04   0.06  -0.14    -0.01  -0.00  -0.04     0.02  -0.00  -0.01
    53   1    -0.04   0.07  -0.13     0.01  -0.02  -0.08     0.01   0.01   0.02
    54   1     0.01   0.04  -0.16    -0.02   0.03  -0.04     0.04  -0.03  -0.01
    55   8    -0.05  -0.05  -0.08     0.22   0.16   0.34     0.16   0.04   0.20
    56   1    -0.02   0.03  -0.04     0.23  -0.06   0.24     0.16  -0.08   0.14
    57   1    -0.03  -0.02  -0.05     0.12   0.12   0.19     0.10   0.02   0.11
    58   8    -0.02   0.03  -0.04    -0.03   0.04  -0.02    -0.01  -0.03  -0.08
    59   1    -0.02   0.02  -0.04    -0.04   0.03  -0.03     0.02  -0.01  -0.06
    60   1    -0.02   0.03  -0.04    -0.02   0.06  -0.01    -0.02  -0.05  -0.10
    61   8     0.01   0.07   0.18    -0.03  -0.12   0.19     0.07   0.29  -0.04
    62   1     0.07   0.04   0.19     0.04  -0.15   0.19     0.04   0.30  -0.05
    63   1    -0.00   0.04   0.12    -0.03  -0.06   0.12     0.04   0.15  -0.03
    64   8    -0.03   0.07  -0.07     0.01  -0.09  -0.11    -0.04   0.18   0.08
    65   1    -0.06   0.06  -0.08    -0.01  -0.09  -0.11    -0.04   0.17   0.07
    66   1    -0.02   0.04  -0.06     0.00  -0.06  -0.07    -0.02   0.11   0.02
    67   8    -0.04  -0.01  -0.02    -0.08  -0.01  -0.02     0.07   0.03  -0.03
    68   1    -0.07  -0.00  -0.02    -0.14  -0.02  -0.03     0.15   0.04   0.00
    69   1    -0.03  -0.01  -0.02    -0.07  -0.00  -0.02     0.07  -0.00  -0.02
    70   8    -0.01   0.02   0.39     0.01  -0.04  -0.10     0.01   0.02   0.02
    71   1     0.04  -0.03   0.35     0.01  -0.04  -0.10     0.02   0.01   0.02
    72   1    -0.16   0.12   0.49     0.04  -0.06  -0.12    -0.00   0.03   0.03
    73   8     0.12  -0.09  -0.04     0.08  -0.01  -0.04    -0.00  -0.10  -0.00
    74   1     0.10  -0.05  -0.03     0.07  -0.01  -0.04    -0.01  -0.06  -0.01
    75   1     0.11  -0.05  -0.03     0.10  -0.02  -0.04    -0.05  -0.03  -0.01
                     22                     23                     24
                      A                      A                      A
 Frequencies --     21.9765                22.9679                23.6432
[...]
     12  -0.115148D-04  0.192299D-04  0.527590D-05  0.388076D-03 -0.356134D-03
     13   0.534649D-04  0.149889D-04 -0.123670D-03 -0.973795D-03  0.382087D-04
     14   0.665825D-04  0.343149D-04  0.266583D-04 -0.163407D-02  0.748818D-03
     15  -0.680443D-04 -0.104050D-03  0.393792D-04 -0.573397D-04  0.274866D-04
     16  -0.368126D-04  0.178654D-04  0.791060D-04  0.243886D-03 -0.588033D-04
               186           187           188           189           190 
      1   0.000000D+00  0.000000D+00  0.000000D+00  0.000000D+00  0.000000D+00
      2   0.161497D-03 -0.913946D-04 -0.198216D-03  0.656318D-03  0.596543D-02
      3  -0.266149D-03  0.340876D-04  0.485212D-04 -0.288148D-03 -0.425823D-02
      4   0.136384D-03 -0.155389D-03  0.974560D-05 -0.119060D-03  0.104342D-03
      5  -0.194222D-04  0.770000D-05  0.154199D-04 -0.478762D-04 -0.562221D-03
      6   0.129735D-04 -0.325449D-05 -0.537620D-05  0.265494D-04  0.247060D-03
      7   0.147464D-05  0.966383D-05  0.000000D+00  0.762729D-05  0.414102D-04
      8   0.289369D-02 -0.101272D-02  0.131371D-03 -0.249212D-03  0.148226D-01
      9  -0.150991D-02  0.608296D-03  0.222948D-05 -0.347089D-03 -0.515565D-02
     10   0.130672D-01 -0.479335D-02  0.533787D-03 -0.411602D-03  0.547633D-01
     11  -0.518482D-04  0.933216D-04  0.178184D-03 -0.547190D-03 -0.620877D-02
     12   0.327522D-04  0.519031D-05 -0.429730D-04 -0.471796D-04 -0.569261D-03
     13   0.263954D-03 -0.507782D-04 -0.123725D-04  0.436912D-04  0.124662D-02
     14  -0.123171D-03  0.308538D-04 -0.205100D-04  0.260473D-03  0.202419D-02
     15   0.169852D-03  0.173825D-05 -0.346497D-04  0.207677D-03  0.247705D-03
     16  -0.135793D-03 -0.461261D-05  0.296723D-04 -0.890231D-04 -0.424147D-03
               191           192           193           194           195 
      1   0.000000D+00  0.000000D+00  0.000000D+00  0.000000D+00  0.000000D+00
      2  -0.447261D-03 -0.152586D-02 -0.940492D-03 -0.552801D-03  0.402064D-03
      3  -0.206533D-03  0.121146D-02  0.362550D-02  0.256371D-02 -0.174543D-02
      4   0.124407D-02 -0.863411D-03 -0.249185D-02 -0.149146D-02  0.966348D-03
      5   0.700004D-04  0.138164D-03  0.644289D-04  0.398154D-04 -0.316286D-04
      6   0.442513D-04 -0.902743D-04 -0.277527D-03 -0.201616D-03  0.128122D-03
      7  -0.111135D-03  0.545103D-04  0.156696D-03  0.843731D-04 -0.656559D-04
      8   0.313279D-02 -0.441835D-02 -0.179393D-01 -0.113170D-01  0.742802D-02
      9  -0.123467D-02  0.284960D-02  0.891327D-02  0.536250D-02 -0.427359D-02
     10   0.134899D-01 -0.208436D-01 -0.729300D-01 -0.444375D-01  0.312477D-01
     11   0.128550D-02  0.107536D-02  0.943261D-03  0.472516D-03 -0.283901D-03
     12   0.106163D-03  0.159816D-03  0.753074D-03  0.481168D-03 -0.325015D-03
     13   0.204981D-03 -0.492738D-03 -0.131130D-02 -0.799238D-03  0.550498D-03
     14  -0.673971D-03 -0.347791D-03  0.103020D-02  0.595438D-03 -0.360483D-03
     15  -0.627231D-04  0.228442D-05 -0.134379D-03 -0.370292D-04  0.275163D-04
     16   0.149637D-03  0.707753D-04  0.209192D-03  0.203835D-03 -0.140979D-03
               196           197           198           199           200 
      1   0.000000D+00  0.000000D+00  0.000000D+00  0.000000D+00  0.000000D+00
      2  -0.140682D-05  0.199045D-03 -0.107928D-03  0.268145D-02  0.124523D-02
      3   0.318074D-03 -0.172335D-03  0.775887D-04 -0.758767D-02 -0.454426D-02
      4  -0.758622D-04  0.174672D-03 -0.582271D-04  0.535200D-02  0.247297D-02
      5   0.000000D+00 -0.152109D-04  0.824084D-05 -0.215910D-03 -0.116482D-03
      6  -0.245131D-04  0.119218D-04 -0.522605D-05  0.576188D-03  0.358988D-03
      7   0.305749D-05 -0.104398D-04  0.287277D-05 -0.347225D-03 -0.158017D-03
      8  -0.838102D-03  0.162551D-02 -0.787713D-03  0.398070D-01  0.206052D-01
      9   0.545561D-03 -0.796819D-03  0.312309D-03 -0.192013D-01 -0.859567D-02
     10  -0.341494D-02  0.684374D-02 -0.301442D-02  0.158592D+00  0.757847D-01
     11   0.325241D-04 -0.370523D-04  0.202145D-05 -0.167985D-02 -0.722338D-03
     12   0.419259D-04  0.733168D-04 -0.849769D-04 -0.118684D-02 -0.987849D-03
     13  -0.682882D-04  0.103902D-03 -0.676018D-04  0.276665D-02  0.129891D-02
     14   0.449180D-04  0.761543D-05 -0.311489D-04 -0.172962D-02 -0.884481D-03
     15   0.116464D-04 -0.162714D-04  0.168408D-04  0.329730D-03  0.161464D-03
     16   0.396053D-04 -0.686083D-04  0.427389D-04 -0.399383D-03 -0.220443D-03
               201           202           203           204           205 
      1   0.000000D+00  0.000000D+00  0.000000D+00  0.000000D+00  0.000000D+00
      2  -0.725310D-03 -0.310311D-04 -0.360880D-03  0.214479D-02 -0.291423D-04
      3   0.332781D-02  0.993396D-04 -0.957749D-03 -0.240850D-02  0.261043D-03
      4  -0.195150D-02 -0.148607D-03  0.316865D-03  0.378011D-02 -0.150792D-03
      5   0.525741D-04 -0.465729D-05  0.585238D-04 -0.169809D-03 -0.479006D-05
      6  -0.241310D-03 -0.950275D-05  0.105713D-03  0.176125D-03 -0.174605D-04
      7   0.130547D-03  0.126537D-04 -0.430461D-04 -0.243220D-03  0.101450D-04
      8  -0.139821D-01 -0.147999D-02 -0.308662D-02  0.263720D-01 -0.802394D-03
      9   0.844518D-02  0.984865D-03 -0.880589D-03 -0.126870D-01  0.644261D-03
     10  -0.596993D-01 -0.677993D-02 -0.421756D-02  0.103591D+00 -0.510625D-02
     11   0.564512D-03  0.105570D-03 -0.234171D-03 -0.759374D-03  0.637961D-04
     12   0.381994D-03  0.128335D-03 -0.741906D-03  0.376547D-03  0.518827D-04
     13  -0.102192D-02  0.239500D-05 -0.424399D-03  0.187757D-02 -0.994348D-04
     14   0.636852D-03  0.174935D-03 -0.261251D-03 -0.641573D-03  0.120637D-03
     15  -0.575425D-04 -0.750391D-04  0.967574D-04  0.296815D-03 -0.339246D-04
     16   0.226082D-03 -0.248554D-04  0.459579D-03 -0.457458D-03  0.361888D-04
               206           207           208           209           210 
      1   0.000000D+00  0.000000D+00  0.000000D+00  0.000000D+00  0.000000D+00
      2   0.332367D-03 -0.645210D-05 -0.156125D-03  0.150085D-02 -0.492459D-02
      3   0.272755D-03 -0.541541D-03 -0.787978D-03  0.733351D-03  0.709321D-02
      4  -0.144129D-03  0.247528D-03  0.485655D-03  0.109181D-02 -0.768189D-02
      5  -0.330808D-04 -0.283141D-05  0.572520D-04 -0.192515D-03  0.429634D-03
      6  -0.249429D-04  0.350805D-04  0.573698D-04 -0.124187D-03 -0.555400D-03
      7   0.168865D-04 -0.140905D-04 -0.206674D-04 -0.532613D-04  0.486938D-03
      8   0.291230D-02  0.155550D-03  0.194715D-02  0.894992D-02 -0.507017D-01
      9  -0.113374D-02  0.376872D-03 -0.354733D-02 -0.132179D-02  0.256421D-01
     10   0.110152D-01 -0.479971D-03  0.179600D-01  0.233429D-01 -0.204863D+00
     11  -0.994515D-04  0.716158D-04 -0.286902D-03  0.691308D-04  0.150380D-02
     12   0.599539D-03 -0.325719D-03 -0.357560D-04 -0.264211D-03  0.155446D-02
     13   0.294856D-03 -0.239156D-03  0.439979D-03 -0.157942D-03 -0.306725D-02
     14   0.909268D-04 -0.114631D-03 -0.395320D-03  0.276972D-03  0.122235D-02
     15  -0.768027D-04  0.154526D-04 -0.552824D-04  0.140765D-03 -0.537258D-03
     16  -0.468899D-03  0.251920D-03 -0.279611D-03  0.320521D-03  0.283671D-03
               211           212           213           214           215 
      1   0.000000D+00  0.000000D+00  0.000000D+00  0.000000D+00  0.000000D+00
      2  -0.776675D-03 -0.295304D-02 -0.137538D-02  0.718810D-04  0.268247D-02
      3  -0.271731D-03 -0.482358D-03  0.142747D-02  0.419151D-03  0.481025D-03
      4  -0.729238D-03  0.903843D-04 -0.129586D-02 -0.222864D-03  0.422872D-03
      5   0.160059D-03  0.248793D-03  0.102457D-03  0.151772D-05 -0.218062D-03
      6   0.474839D-04  0.334238D-04 -0.125310D-03 -0.430569D-04 -0.304165D-04
      7   0.108943D-03  0.113394D-04  0.114634D-03  0.320556D-04 -0.356871D-04
      8   0.352195D-01  0.116546D-01 -0.506958D-02  0.589012D-02 -0.245457D-02
      9  -0.119055D-01 -0.567608D-02  0.189621D-02 -0.187980D-02  0.145853D-02
     10   0.124545D+00  0.461649D-01 -0.179941D-01  0.223142D-01 -0.929605D-02
     11  -0.322200D-02 -0.297606D-02 -0.511091D-03  0.204520D-03  0.208479D-02
     12  -0.861154D-03  0.272603D-03 -0.152786D-04 -0.172828D-03 -0.429218D-03
     13   0.633160D-03  0.671953D-03 -0.597341D-03  0.981703D-04 -0.218213D-03
     14  -0.161624D-02 -0.310636D-03  0.532949D-03  0.811017D-04  0.350618D-03
     15  -0.110179D-02 -0.612629D-03 -0.468601D-03 -0.103114D-03  0.655633D-03
     16   0.504134D-03 -0.918882D-05  0.500708D-03  0.212396D-03  0.545152D-04
               216           217           218           219           220 
      1   0.000000D+00  0.000000D+00  0.000000D+00  0.000000D+00  0.000000D+00
      2  -0.436258D-03 -0.689371D-03 -0.630897D-03  0.142094D-02 -0.250707D-03
      3  -0.380193D-03  0.103789D-02  0.312462D-03 -0.574406D-03  0.195828D-02
      4   0.304268D-03 -0.627868D-03 -0.355158D-03  0.119889D-02  0.550480D-04
      5   0.438272D-04  0.571143D-04  0.518333D-04 -0.118120D-03  0.673654D-05
      6   0.232580D-04 -0.922835D-04 -0.231290D-04  0.489520D-04 -0.142932D-03
      7  -0.220282D-04  0.479424D-04  0.292269D-04 -0.967201D-04 -0.303184D-04
      8   0.476698D-02 -0.403583D-02  0.303542D-02 -0.557178D-03 -0.838640D-02
      9  -0.196730D-02  0.111517D-02 -0.116511D-02 -0.223803D-05  0.420322D-02
     10   0.181741D-01 -0.154474D-01  0.112900D-01 -0.190791D-02 -0.399637D-01
     11  -0.606895D-03  0.142911D-03 -0.562698D-03  0.108669D-02  0.707139D-03
     12   0.371287D-04  0.867842D-04 -0.487653D-04 -0.755300D-04  0.643472D-03
     13   0.350429D-03 -0.102878D-03  0.149219D-04  0.507468D-03  0.170008D-03
     14  -0.175829D-03  0.113024D-03  0.139773D-03 -0.246670D-03  0.866958D-03
     15   0.456359D-04  0.844500D-04 -0.291750D-03  0.911579D-03  0.613260D-03
     16   0.000000D+00  0.108885D-03  0.172443D-03 -0.299254D-03  0.105502D-02
               221           222           223           224           225 
      1   0.000000D+00  0.000000D+00  0.000000D+00  0.000000D+00  0.000000D+00
      2  -0.145695D-03 -0.943158D-03  0.173457D-02  0.990790D-03  0.199259D-02
      3   0.928451D-03  0.487596D-02 -0.328978D-02 -0.281130D-02 -0.789337D-02
      4  -0.341908D-03 -0.117571D-02  0.195278D-02  0.252945D-02  0.329128D-02
      5   0.174641D-04  0.564061D-04 -0.104564D-03 -0.780119D-04 -0.113471D-03
      6  -0.644347D-04 -0.359414D-03  0.228172D-03  0.205628D-03  0.583997D-03
      7   0.234832D-04  0.329905D-04 -0.940309D-04 -0.183098D-03 -0.164131D-03
      8  -0.368843D-02 -0.211618D-01  0.229775D-01  0.166542D-01  0.377950D-01
      9   0.234388D-02  0.119867D-01 -0.126475D-01 -0.103704D-01 -0.212211D-01
     10  -0.178612D-01 -0.945237D-01  0.105775D+00  0.747129D-01  0.162910D+00
     11   0.628054D-04  0.119100D-02 -0.153543D-02 -0.568988D-03 -0.210749D-02
     12   0.222170D-03  0.122578D-02 -0.802122D-03 -0.191376D-03 -0.136945D-02
     13  -0.193859D-03 -0.341618D-03  0.574422D-03  0.138741D-02  0.119725D-02
     14   0.218748D-03  0.161322D-02 -0.151861D-02 -0.480143D-03 -0.241053D-02
     15  -0.154539D-04  0.826061D-03 -0.700655D-03  0.244870D-03 -0.962678D-03
     16   0.270484D-03  0.171751D-02 -0.138552D-02 -0.143852D-03 -0.207989D-02
               226           227           228 
      1   0.000000D+00  0.000000D+00  0.000000D+00
      2  -0.101699D-04  0.812713D-04  0.484079D-03
      3  -0.157120D-03 -0.102977D-03 -0.300271D-03
      4   0.129402D-03  0.417691D-03  0.111828D-02
      5  -0.625086D-05 -0.106456D-04 -0.370039D-04
      6   0.866448D-05  0.481461D-05  0.162706D-04
      7  -0.119111D-04 -0.297706D-04 -0.801866D-04
      8   0.116442D-02  0.194502D-02  0.530837D-02
      9  -0.133749D-02 -0.205279D-02 -0.381968D-02
     10   0.113295D-01  0.152320D-01  0.287223D-01
     11  -0.941242D-04 -0.153657D-03 -0.268595D-03
     12  -0.150206D-03 -0.953451D-04 -0.718318D-04
     13   0.245992D-04  0.181371D-03  0.614578D-03
     14  -0.115710D-03 -0.141620D-03 -0.186669D-03
     15   0.804761D-05  0.298590D-04  0.120986D-03
     16  -0.137446D-03 -0.590370D-04  0.549818D-04

 ----------------------------------------------------------------------

 Electric dipole moment (input orientation):
 (Debye = 10**-18 statcoulomb cm , SI units = C m)
                  (au)            (Debye)         (10**-30 SI)
   Tot        0.996056D+01      0.253172D+02      0.844491D+02
   x         -0.292064D+01     -0.742351D+01     -0.247622D+02
   y         -0.215281D+01     -0.547188D+01     -0.182522D+02
   z         -0.927621D+01     -0.235778D+02     -0.786470D+02

 Dipole polarizability, Alpha (input orientation).
 (esu units = cm**3 , SI units = C**2 m**2 J**-1)
 Alpha(0;0):
               (au)            (10**-24 esu)      (10**-40 SI)
   iso        0.430572D+03      0.638042D+02      0.709918D+02
   aniso      0.121042D+03      0.179366D+02      0.199572D+02
   xx         0.391599D+03      0.580290D+02      0.645660D+02
   yx        -0.180434D+02     -0.267375D+01     -0.297495D+01
   yy         0.507001D+03      0.751298D+02      0.835932D+02
   zx        -0.186281D+01     -0.276040D+00     -0.307136D+00
   zy         0.131573D+02      0.194970D+01      0.216934D+01
   zz         0.393116D+03      0.582538D+02      0.648161D+02

 ----------------------------------------------------------------------

 Dipole orientation:
    27          0.06299199         -0.55324153          0.92115917
     8          2.52409837         -7.39042901         -0.31152256
     6          1.36243335         -5.45466179          0.27333509
     8          2.18243685         -3.21796776         -0.20849933
     6         -1.23354222         -5.49349015          1.57076347
     7         -1.35182550         -3.14533057          3.12118165
     6          0.22969782         -3.30906173          5.46288298
     1         -0.87254373         -4.12089202          7.00964721
     1          1.82990638         -4.55139212          5.08929323
     6          1.14697892         -0.66622984          6.09509082
     7          2.20734029          0.46376272          3.73313556
     6          2.10220351          3.27012266          3.69122436
     6         -0.65514035          3.98867597          3.10040696
     8         -1.44989868          6.15095524          3.55285010
     8         -1.96692137          2.23943932          2.06559075
     6          3.88394323          4.31703787          1.66705551
     6          3.38824454          3.40632823         -1.02358257
     8          4.57809051          4.45652828         -2.77950825
     8          1.81855011          1.63028924         -1.45167647
     1          3.78984002          6.37520152          1.66975562
     1          5.83519848          3.82599156          2.14220636
     1          2.64896145          4.05226779          5.52116468
     1          4.01947258         -0.17770911          3.43929823
     1          2.57290575         -0.68503827          7.58744675
     1         -0.43123664          0.50101596          6.72045782
     1         -3.19280980         -2.77140883          3.63652228
     1         -1.40188243         -7.16398904          2.77095418
     6         -3.36510616         -5.52225459         -0.39403560
     6         -3.54597323         -3.25285858         -2.17800709
     8         -4.95183066         -3.45642810         -4.06086007
     8         -2.31289447         -1.22668795         -1.73021373
     1         -3.20124960         -7.22326110         -1.54857572
     1         -5.18025304         -5.65811787          0.58682396
     8          2.86148853          9.67320941         -2.73154011
     1          4.19294240         10.73748471         -3.37213158
     1          3.50265865          7.96206402         -2.92916646
     8          2.90205241        -12.57510559          0.81072916
     1          2.72066149        -10.76156603          0.55272978
     1          1.68524348        -13.30975184         -0.32500069
     8          6.38184918         -5.53700697         -3.85294945
     1          6.06952906         -3.74124473         -3.95773979
     1          5.14302405         -6.15331913         -2.62953410
     8         -1.70344141         -5.58864527         -7.78838158
     1         -2.21739978         -7.32456014         -7.97968468
     1         -2.95098967         -4.85323437         -6.66081567
     8         -1.21351467          2.91973046         -6.55728633
     1         -1.50570460          4.70065375         -6.25156552
     1         -0.63253732          2.27180100         -4.94088552
     8          5.65101102          1.00715974         -6.79690035
     1          4.15963300         -0.00564546         -7.05046738
     1          5.16913907          2.20801996         -5.48172100
     8          7.26400295         -1.79307214          2.45097128
     1          7.14107549         -3.56936615          2.85099455
     1          7.52000436         -1.75863435          0.64540247
     8         -9.92876477         -5.04947025         -4.89010614
     1        -10.40776948         -3.92758062         -6.23849238
     1         -8.17757384         -4.60708146         -4.52042574
     8         -7.03717970          3.38804773         -2.85322156
     1         -5.63177641          4.50884477         -2.43877644
     1         -8.32504782          4.52792061         -3.45893840
     8          9.78871418          5.74485052         -3.04846042
     1         10.60148492          5.18058711         -1.52429573
     1          8.00636027          5.35874970         -2.80415150
     8         -6.54138367          8.33419726          4.09180072
     1         -6.60587184          9.84255084          3.07940543
     1         -4.89057213          7.60463197          3.76936085
     8         -3.26941670          7.05792064         -1.77689830
     1         -3.53096033          8.81311063         -2.20765047
     1         -2.65185196          7.06095807         -0.04897027
     8         -6.47848977         -2.66046181          5.01207707
     1         -7.32370004         -1.05278206          5.16785195
     1         -6.77378768         -3.52216910          6.58985766
     8         -2.41904473          6.17474757          9.14402783
     1         -2.10126620          6.39805896          7.35279408
     1         -0.95479138          5.28557736          9.76868421

 Electric dipole moment (dipole orientation):
 (Debye = 10**-18 statcoulomb cm , SI units = C m)
                  (au)            (Debye)         (10**-30 SI)
   Tot        0.996056D+01      0.253172D+02      0.844491D+02
   x          0.000000D+00      0.000000D+00      0.000000D+00
   y          0.000000D+00      0.000000D+00      0.000000D+00
   z          0.996056D+01      0.253172D+02      0.844491D+02

 Dipole polarizability, Alpha (dipole orientation).
 (esu units = cm**3 , SI units = C**2 m**2 J**-1)
 Alpha(0;0):
               (au)            (10**-24 esu)      (10**-40 SI)
   iso        0.430572D+03      0.638042D+02      0.709918D+02
   aniso      0.121042D+03      0.179366D+02      0.199572D+02
   xx         0.394282D+03      0.584266D+02      0.650084D+02
   yx         0.237462D+02      0.351883D+01      0.391523D+01
   yy         0.497136D+03      0.736680D+02      0.819667D+02
   zx         0.751856D+01      0.111414D+01      0.123964D+01
   zy         0.305160D+02      0.452201D+01      0.503142D+01
   zz         0.400298D+03      0.593180D+02      0.660002D+02

 ----------------------------------------------------------------------

 This type of calculation cannot be archived.


 ADVERTISING--  HE WHO HAS SOMETHING TO SELL AND GOES AND WHISPERS
                IN A WELL, IS NOT SO APT TO GET THE DOLLARS AS HE
                WHO CLIMBS A TREE AND HOLLERS.

                   -- FROM THE BACK OF A SUGAR PACKET
 Job cpu time:       0 days  0 hours  0 minutes  1.7 seconds.
 Elapsed time:       0 days  0 hours  0 minutes  0.4 seconds.
 File lengths (MBytes):  RWF=      6 Int=      0 D2E=      0 Chk=    303 Scr=      1
 Normal termination of Gaussian 16 at Thu Mar 27 16:23:54 2025.
