 Entering Gaussian System, Link 0=g16
 Input=CoO_komplex.inp
 Output=CoO_komplex.out
 Initial command:
 /afs/ics.muni.cz/software/g16-C.01/avx2/g16/l1.exe "/scratch/zdrahalj/job_14479838.pbs-m1/Gau-379330.inp" -scrdir="/scratch/zdrahalj/job_14479838.pbs-m1/"
 Entering Link 1 = /afs/ics.muni.cz/software/g16-C.01/avx2/g16/l1.exe PID=    379332.
  
 Copyright (c) 1988-2019, Gaussian, Inc.  All Rights Reserved.
  
 This is part of the Gaussian(R) 16 program.  It is based on
 the Gaussian(R) 09 system (copyright 2009, Gaussian, Inc.),
 the Gaussian(R) 03 system (copyright 2003, Gaussian, Inc.),
 the Gaussian(R) 98 system (copyright 1998, Gaussian, Inc.),
 the Gaussian(R) 94 system (copyright 1995, Gaussian, Inc.),
 the Gaussian 92(TM) system (copyright 1992, Gaussian, Inc.),
 the Gaussian 90(TM) system (copyright 1990, Gaussian, Inc.),
 the Gaussian 88(TM) system (copyright 1988, Gaussian, Inc.),
 the Gaussian 86(TM) system (copyright 1986, Carnegie Mellon
 University), and the Gaussian 82(TM) system (copyright 1983,
 Carnegie Mellon University). Gaussian is a federally registered
 trademark of Gaussian, Inc.
  
 This software contains proprietary and confidential information,
 including trade secrets, belonging to Gaussian, Inc.
  
 This software is provided under written license and may be
 used, copied, transmitted, or stored only in accord with that
 written license.
  
 The following legend is applicable only to US Government
 contracts under FAR:
  
                    RESTRICTED RIGHTS LEGEND
  
 Use, reproduction and disclosure by the US Government is
 subject to restrictions as set forth in subparagraphs (a)
 and (c) of the Commercial Computer Software - Restricted
 Rights clause in FAR 52.227-19.
  
 Gaussian, Inc.
 340 Quinnipiac St., Bldg. 40, Wallingford CT 06492
  
  
 ---------------------------------------------------------------
 Warning -- This program may not be used in any manner that
 competes with the business of Gaussian, Inc. or will provide
 assistance to any competitor of Gaussian, Inc.  The licensee
 of this program is prohibited from giving any competitor of
 Gaussian, Inc. access to this program.  By using this program,
 the user acknowledges that Gaussian, Inc. is engaged in the
 business of creating and licensing software in the field of
 computational chemistry and represents and warrants to the
 licensee that it is not a competitor of Gaussian, Inc. and that
 it will not use this program in any manner prohibited above.
 ---------------------------------------------------------------
  

 Cite this work as:
 Gaussian 16, Revision C.01,
 M. J. Frisch, G. W. Trucks, H. B. Schlegel, G. E. Scuseria, 
 M. A. Robb, J. R. Cheeseman, G. Scalmani, V. Barone, 
 G. A. Petersson, H. Nakatsuji, X. Li, M. Caricato, A. V. Marenich, 
 J. Bloino, B. G. Janesko, R. Gomperts, B. Mennucci, H. P. Hratchian, 
 J. V. Ortiz, A. F. Izmaylov, J. L. Sonnenberg, D. Williams-Young, 
 F. Ding, F. Lipparini, F. Egidi, J. Goings, B. Peng, A. Petrone, 
 T. Henderson, D. Ranasinghe, V. G. Zakrzewski, J. Gao, N. Rega, 
 G. Zheng, W. Liang, M. Hada, M. Ehara, K. Toyota, R. Fukuda, 
 J. Hasegawa, M. Ishida, T. Nakajima, Y. Honda, O. Kitao, H. Nakai, 
 T. Vreven, K. Throssell, J. A. Montgomery, Jr., J. E. Peralta, 
 F. Ogliaro, M. J. Bearpark, J. J. Heyd, E. N. Brothers, K. N. Kudin, 
 V. N. Staroverov, T. A. Keith, R. Kobayashi, J. Normand, 
 K. Raghavachari, A. P. Rendell, J. C. Burant, S. S. Iyengar, 
 J. Tomasi, M. Cossi, J. M. Millam, M. Klene, C. Adamo, R. Cammi, 
 J. W. Ochterski, R. L. Martin, K. Morokuma, O. Farkas, 
 J. B. Foresman, and D. J. Fox, Gaussian, Inc., Wallingford CT, 2019.
 
 ******************************************
 Gaussian 16:  ES64L-G16RevC.01  3-Jul-2019
                13-Nov-2025 
 ******************************************
 %chk=CoO_komplex.chk
 %mem=40GB
 %nproc=16
 Will use up to   16 processors via shared memory.
 ----------------------------------------------------------------------
 #p B3LYP/6-311++G** iop(2/11=1) scf(xqc) scrf=(cpcm,solvent=water) opt
 (verytight)
 ----------------------------------------------------------------------
 1/7=1,18=20,19=15,26=3,38=1/1,3;
 2/9=110,11=1,12=2,17=6,18=5,40=1/2;
 3/5=4,6=6,7=1111,11=2,25=1,30=1,70=2101,71=1,72=1,74=-5/1,2,3;
 4//1;
 5/5=2,8=3,13=1,38=5,53=1/2,8;
 6/7=2,8=2,9=2,10=2,28=1/1;
 7//1,2,3,16;
 1/7=1,18=20,19=15,26=3/3(2);
 2/9=110,11=1/2;
 99//99;
 2/9=110,11=1/2;
 3/5=4,6=6,7=1111,11=2,25=1,30=1,70=2105,71=1,72=1,74=-5/1,2,3;
 4/5=5,16=3,69=1/1;
 5/5=2,8=3,13=1,38=5,53=1/2,8;
 7//1,2,3,16;
 1/7=1,18=20,19=15,26=3/3(-5);
 2/9=110,11=1/2;
 6/7=2,8=2,9=2,10=2,19=2,28=1/1;
 99/9=1/99;
 Leave Link    1 at Thu Nov 13 12:25:51 2025, MaxMem=  5368709120 cpu:               0.3 elap:               0.0
 (Enter /afs/ics.muni.cz/software/g16-C.01/avx2/g16/l101.exe)
 ----------------------------------
 CoO komplex, zakl. stav, frekvence
 ----------------------------------
 Symbolic Z-matrix:
 Charge = -1 Multiplicity = 1
 Co                    0.        0.05213   0. 
 O                     3.19355  -0.37217   2.21708 
 O                    -3.19355  -0.37217  -2.21708 
 O                     2.87587   2.39656  -1.67328 
 O                    -2.87587   2.39656   1.67328 
 O                     1.08938   1.44675  -0.76914 
 O                    -1.08938   1.44675   0.76914 
 O                    -1.07684   0.00272  -1.59002 
 O                     1.07684   0.00272   1.59002 
 N                     1.22387  -1.35546  -0.57374 
 N                    -1.22387  -1.35546   0.57374 
 C                     2.29202  -0.40075   1.38628 
 C                    -2.29202  -0.40075  -1.38628 
 C                     2.3249    1.42867  -1.13787 
 C                    -2.3249    1.42867   1.13787 
 C                     2.54696  -0.92685  -0.04162 
 C                    -2.54696  -0.92685   0.04162 
 H                    -4.12414   0.4504    0.52039 
 H                     4.12414   0.4504   -0.52039 
 H                     1.16038  -3.49344  -0.57598 
 H                    -1.16038  -3.49344   0.57598 
 H                     1.14031  -2.72991   1.0168 
 H                    -1.14031  -2.72991  -1.0168 
 C                     0.7582   -2.65706  -0.00166 
 C                    -0.7582   -2.65706   0.00166 
 H                    -3.36453  -0.26158   1.92438 
 H                     3.36453  -0.26158  -1.92438 
 C                     3.15769   0.15558  -0.93283 
 C                    -3.15769   0.15558   0.93283 
 H                    -3.22925  -1.7788   -0.00771 
 H                     3.22925  -1.7788    0.00771 
 H                     1.24684  -1.41525  -1.5908 
 H                    -1.24684  -1.41525   1.5908 
 
 ITRead=  0  0  0  0  0  0  0  0  0  0  0  0  0  0  0  0  0  0  0  0
 ITRead=  0  0  0  0  0  0  0  0  0  0  0  0  0
 MicOpt= -1 -1 -1 -1 -1 -1 -1 -1 -1 -1 -1 -1 -1 -1 -1 -1 -1 -1 -1 -1
 MicOpt= -1 -1 -1 -1 -1 -1 -1 -1 -1 -1 -1 -1 -1
 NAtoms=     33 NQM=       33 NQMF=       0 NMMI=      0 NMMIF=      0
                NMic=       0 NMicF=      0.
                    Isotopes and Nuclear Properties:
 (Nuclear quadrupole moments (NQMom) in fm**2, nuclear magnetic moments (NMagM)
  in nuclear magnetons)

  Atom         1           2           3           4           5           6           7           8           9          10
 IAtWgt=          59          16          16          16          16          16          16          16          16          14
 AtmWgt=  58.9331978  15.9949146  15.9949146  15.9949146  15.9949146  15.9949146  15.9949146  15.9949146  15.9949146  14.0030740
 NucSpn=           7           0           0           0           0           0           0           0           0           2
 AtZEff=  -0.0000000  -0.0000000  -0.0000000  -0.0000000  -0.0000000  -0.0000000  -0.0000000  -0.0000000  -0.0000000  -0.0000000
 NQMom=   42.0000000   0.0000000   0.0000000   0.0000000   0.0000000   0.0000000   0.0000000   0.0000000   0.0000000   2.0440000
 NMagM=    4.6270000   0.0000000   0.0000000   0.0000000   0.0000000   0.0000000   0.0000000   0.0000000   0.0000000   0.4037610
 AtZNuc=  27.0000000   8.0000000   8.0000000   8.0000000   8.0000000   8.0000000   8.0000000   8.0000000   8.0000000   7.0000000

  Atom        11          12          13          14          15          16          17          18          19          20
 IAtWgt=          14          12          12          12          12          12          12           1           1           1
 AtmWgt=  14.0030740  12.0000000  12.0000000  12.0000000  12.0000000  12.0000000  12.0000000   1.0078250   1.0078250   1.0078250
 NucSpn=           2           0           0           0           0           0           0           1           1           1
 AtZEff=  -0.0000000  -0.0000000  -0.0000000  -0.0000000  -0.0000000  -0.0000000  -0.0000000  -0.0000000  -0.0000000  -0.0000000
 NQMom=    2.0440000   0.0000000   0.0000000   0.0000000   0.0000000   0.0000000   0.0000000   0.0000000   0.0000000   0.0000000
 NMagM=    0.4037610   0.0000000   0.0000000   0.0000000   0.0000000   0.0000000   0.0000000   2.7928460   2.7928460   2.7928460
 AtZNuc=   7.0000000   6.0000000   6.0000000   6.0000000   6.0000000   6.0000000   6.0000000   1.0000000   1.0000000   1.0000000

  Atom        21          22          23          24          25          26          27          28          29          30
 IAtWgt=           1           1           1          12          12           1           1          12          12           1
 AtmWgt=   1.0078250   1.0078250   1.0078250  12.0000000  12.0000000   1.0078250   1.0078250  12.0000000  12.0000000   1.0078250
 NucSpn=           1           1           1           0           0           1           1           0           0           1
 AtZEff=  -0.0000000  -0.0000000  -0.0000000  -0.0000000  -0.0000000  -0.0000000  -0.0000000  -0.0000000  -0.0000000  -0.0000000
 NQMom=    0.0000000   0.0000000   0.0000000   0.0000000   0.0000000   0.0000000   0.0000000   0.0000000   0.0000000   0.0000000
 NMagM=    2.7928460   2.7928460   2.7928460   0.0000000   0.0000000   2.7928460   2.7928460   0.0000000   0.0000000   2.7928460
 AtZNuc=   1.0000000   1.0000000   1.0000000   6.0000000   6.0000000   1.0000000   1.0000000   6.0000000   6.0000000   1.0000000

  Atom        31          32          33
 IAtWgt=           1           1           1
 AtmWgt=   1.0078250   1.0078250   1.0078250
 NucSpn=           1           1           1
 AtZEff=  -0.0000000  -0.0000000  -0.0000000
 NQMom=    0.0000000   0.0000000   0.0000000
 NMagM=    2.7928460   2.7928460   2.7928460
 AtZNuc=   1.0000000   1.0000000   1.0000000
 Leave Link  101 at Thu Nov 13 12:25:54 2025, MaxMem=  5368709120 cpu:               2.5 elap:               0.2
 (Enter /afs/ics.muni.cz/software/g16-C.01/avx2/g16/l103.exe)

 GradGradGradGradGradGradGradGradGradGradGradGradGradGradGradGradGradGrad
 Berny optimization.
 Initialization pass.
                           ----------------------------
                           !    Initial Parameters    !
                           ! (Angstroms and Degrees)  !
 --------------------------                            --------------------------
 ! Name  Definition              Value          Derivative Info.                !
 --------------------------------------------------------------------------------
 ! R1    R(1,6)                  1.9296         estimate D2E/DX2                !
 ! R2    R(1,7)                  1.9296         estimate D2E/DX2                !
 ! R3    R(1,8)                  1.921          estimate D2E/DX2                !
 ! R4    R(1,9)                  1.921          estimate D2E/DX2                !
 ! R5    R(1,10)                 1.9515         estimate D2E/DX2                !
 ! R6    R(1,11)                 1.9515         estimate D2E/DX2                !
 ! R7    R(2,12)                 1.2263         estimate D2E/DX2                !
 ! R8    R(3,13)                 1.2263         estimate D2E/DX2                !
 ! R9    R(4,14)                 1.2357         estimate D2E/DX2                !
 ! R10   R(5,15)                 1.2357         estimate D2E/DX2                !
 ! R11   R(6,14)                 1.2895         estimate D2E/DX2                !
 ! R12   R(7,15)                 1.2895         estimate D2E/DX2                !
 ! R13   R(8,13)                 1.2965         estimate D2E/DX2                !
 ! R14   R(9,12)                 1.2965         estimate D2E/DX2                !
 ! R15   R(10,16)                1.4891         estimate D2E/DX2                !
 ! R16   R(10,24)                1.4961         estimate D2E/DX2                !
 ! R17   R(10,32)                1.0191         estimate D2E/DX2                !
 ! R18   R(11,17)                1.4891         estimate D2E/DX2                !
 ! R19   R(11,25)                1.4961         estimate D2E/DX2                !
 ! R20   R(11,33)                1.0191         estimate D2E/DX2                !
 ! R21   R(12,16)                1.5429         estimate D2E/DX2                !
 ! R22   R(13,17)                1.5429         estimate D2E/DX2                !
 ! R23   R(14,28)                1.535          estimate D2E/DX2                !
 ! R24   R(15,29)                1.535          estimate D2E/DX2                !
 ! R25   R(16,28)                1.5293         estimate D2E/DX2                !
 ! R26   R(16,31)                1.0926         estimate D2E/DX2                !
 ! R27   R(17,29)                1.5293         estimate D2E/DX2                !
 ! R28   R(17,30)                1.0926         estimate D2E/DX2                !
 ! R29   R(18,29)                1.0914         estimate D2E/DX2                !
 ! R30   R(19,28)                1.0914         estimate D2E/DX2                !
 ! R31   R(20,24)                1.0914         estimate D2E/DX2                !
 ! R32   R(21,25)                1.0914         estimate D2E/DX2                !
 ! R33   R(22,24)                1.0902         estimate D2E/DX2                !
 ! R34   R(23,25)                1.0902         estimate D2E/DX2                !
 ! R35   R(24,25)                1.5164         estimate D2E/DX2                !
 ! R36   R(26,29)                1.0954         estimate D2E/DX2                !
 ! R37   R(27,28)                1.0954         estimate D2E/DX2                !
 ! A1    A(6,1,7)               87.435          estimate D2E/DX2                !
 ! A2    A(6,1,8)               90.2945         estimate D2E/DX2                !
 ! A3    A(6,1,9)               91.8361         estimate D2E/DX2                !
 ! A4    A(6,1,10)              92.8694         estimate D2E/DX2                !
 ! A5    A(7,1,8)               91.8361         estimate D2E/DX2                !
 ! A6    A(7,1,9)               90.2945         estimate D2E/DX2                !
 ! A7    A(7,1,11)              92.8694         estimate D2E/DX2                !
 ! A8    A(8,1,10)              95.1439         estimate D2E/DX2                !
 ! A9    A(8,1,11)              82.7175         estimate D2E/DX2                !
 ! A10   A(9,1,10)              82.7175         estimate D2E/DX2                !
 ! A11   A(9,1,11)              95.1439         estimate D2E/DX2                !
 ! A12   A(10,1,11)             87.6783         estimate D2E/DX2                !
 ! A13   A(1,6,14)             130.1495         estimate D2E/DX2                !
 ! A14   A(1,7,15)             130.1495         estimate D2E/DX2                !
 ! A15   A(1,8,13)             113.7868         estimate D2E/DX2                !
 ! A16   A(1,9,12)             113.7868         estimate D2E/DX2                !
 ! A17   A(1,10,16)            104.1558         estimate D2E/DX2                !
 ! A18   A(1,10,24)            108.6568         estimate D2E/DX2                !
 ! A19   A(1,10,32)            110.4797         estimate D2E/DX2                !
 ! A20   A(16,10,24)           112.9748         estimate D2E/DX2                !
 ! A21   A(16,10,32)           110.7011         estimate D2E/DX2                !
 ! A22   A(24,10,32)           109.7308         estimate D2E/DX2                !
 ! A23   A(1,11,17)            104.1558         estimate D2E/DX2                !
 ! A24   A(1,11,25)            108.6568         estimate D2E/DX2                !
 ! A25   A(1,11,33)            110.4797         estimate D2E/DX2                !
 ! A26   A(17,11,25)           112.9748         estimate D2E/DX2                !
 ! A27   A(17,11,33)           110.7011         estimate D2E/DX2                !
 ! A28   A(25,11,33)           109.7308         estimate D2E/DX2                !
 ! A29   A(2,12,9)             125.1225         estimate D2E/DX2                !
 ! A30   A(2,12,16)            120.8938         estimate D2E/DX2                !
 ! A31   A(9,12,16)            113.979          estimate D2E/DX2                !
 ! A32   A(3,13,8)             125.1225         estimate D2E/DX2                !
 ! A33   A(3,13,17)            120.8938         estimate D2E/DX2                !
 ! A34   A(8,13,17)            113.979          estimate D2E/DX2                !
 ! A35   A(4,14,6)             122.6912         estimate D2E/DX2                !
 ! A36   A(4,14,28)            117.7475         estimate D2E/DX2                !
 ! A37   A(6,14,28)            119.5542         estimate D2E/DX2                !
 ! A38   A(5,15,7)             122.6912         estimate D2E/DX2                !
 ! A39   A(5,15,29)            117.7475         estimate D2E/DX2                !
 ! A40   A(7,15,29)            119.5542         estimate D2E/DX2                !
 ! A41   A(10,16,12)           106.3814         estimate D2E/DX2                !
 ! A42   A(10,16,28)           110.5058         estimate D2E/DX2                !
 ! A43   A(10,16,31)           110.2761         estimate D2E/DX2                !
 ! A44   A(12,16,28)           111.3425         estimate D2E/DX2                !
 ! A45   A(12,16,31)           109.1034         estimate D2E/DX2                !
 ! A46   A(28,16,31)           109.1971         estimate D2E/DX2                !
 ! A47   A(11,17,13)           106.3814         estimate D2E/DX2                !
 ! A48   A(11,17,29)           110.5058         estimate D2E/DX2                !
 ! A49   A(11,17,30)           110.2761         estimate D2E/DX2                !
 ! A50   A(13,17,29)           111.3425         estimate D2E/DX2                !
 ! A51   A(13,17,30)           109.1034         estimate D2E/DX2                !
 ! A52   A(29,17,30)           109.1971         estimate D2E/DX2                !
 ! A53   A(10,24,20)           110.5364         estimate D2E/DX2                !
 ! A54   A(10,24,22)           107.8338         estimate D2E/DX2                !
 ! A55   A(10,24,25)           108.1854         estimate D2E/DX2                !
 ! A56   A(20,24,22)           108.133          estimate D2E/DX2                !
 ! A57   A(20,24,25)           111.6944         estimate D2E/DX2                !
 ! A58   A(22,24,25)           110.3923         estimate D2E/DX2                !
 ! A59   A(11,25,21)           110.5364         estimate D2E/DX2                !
 ! A60   A(11,25,23)           107.8338         estimate D2E/DX2                !
 ! A61   A(11,25,24)           108.1854         estimate D2E/DX2                !
 ! A62   A(21,25,23)           108.133          estimate D2E/DX2                !
 ! A63   A(21,25,24)           111.6944         estimate D2E/DX2                !
 ! A64   A(23,25,24)           110.3923         estimate D2E/DX2                !
 ! A65   A(14,28,16)           116.627          estimate D2E/DX2                !
 ! A66   A(14,28,19)           107.8706         estimate D2E/DX2                !
 ! A67   A(14,28,27)           107.2993         estimate D2E/DX2                !
 ! A68   A(16,28,19)           108.9419         estimate D2E/DX2                !
 ! A69   A(16,28,27)           109.4719         estimate D2E/DX2                !
 ! A70   A(19,28,27)           106.1258         estimate D2E/DX2                !
 ! A71   A(15,29,17)           116.627          estimate D2E/DX2                !
 ! A72   A(15,29,18)           107.8706         estimate D2E/DX2                !
 ! A73   A(15,29,26)           107.2993         estimate D2E/DX2                !
 ! A74   A(17,29,18)           108.9419         estimate D2E/DX2                !
 ! A75   A(17,29,26)           109.4719         estimate D2E/DX2                !
 ! A76   A(18,29,26)           106.1258         estimate D2E/DX2                !
 ! A77   L(6,1,11,7,-1)        180.3044         estimate D2E/DX2                !
 ! A78   L(7,1,10,6,-1)        180.3044         estimate D2E/DX2                !
 ! A79   L(8,1,9,6,-1)         182.1306         estimate D2E/DX2                !
 ! A80   L(6,1,11,7,-2)        173.01           estimate D2E/DX2                !
 ! A81   L(7,1,10,6,-2)        173.01           estimate D2E/DX2                !
 ! A82   L(8,1,9,6,-2)         182.0374         estimate D2E/DX2                !
 ! D1    D(7,1,6,14)           155.3307         estimate D2E/DX2                !
 ! D2    D(8,1,6,14)          -112.8445         estimate D2E/DX2                !
 ! D3    D(9,1,6,14)            65.1181         estimate D2E/DX2                !
 ! D4    D(10,1,6,14)          -17.6792         estimate D2E/DX2                !
 ! D5    D(6,1,7,15)           155.3307         estimate D2E/DX2                !
 ! D6    D(8,1,7,15)            65.1181         estimate D2E/DX2                !
 ! D7    D(9,1,7,15)          -112.8445         estimate D2E/DX2                !
 ! D8    D(11,1,7,15)          -17.6792         estimate D2E/DX2                !
 ! D9    D(6,1,8,13)          -152.9072         estimate D2E/DX2                !
 ! D10   D(7,1,8,13)           -65.4641         estimate D2E/DX2                !
 ! D11   D(10,1,8,13)          114.1852         estimate D2E/DX2                !
 ! D12   D(11,1,8,13)           27.1952         estimate D2E/DX2                !
 ! D13   D(6,1,9,12)           -65.4641         estimate D2E/DX2                !
 ! D14   D(7,1,9,12)          -152.9072         estimate D2E/DX2                !
 ! D15   D(10,1,9,12)           27.1952         estimate D2E/DX2                !
 ! D16   D(11,1,9,12)          114.1852         estimate D2E/DX2                !
 ! D17   D(6,1,10,16)           53.2474         estimate D2E/DX2                !
 ! D18   D(6,1,10,24)          173.9137         estimate D2E/DX2                !
 ! D19   D(6,1,10,32)          -65.6575         estimate D2E/DX2                !
 ! D20   D(8,1,10,16)          143.802          estimate D2E/DX2                !
 ! D21   D(8,1,10,24)          -95.5317         estimate D2E/DX2                !
 ! D22   D(8,1,10,32)           24.8971         estimate D2E/DX2                !
 ! D23   D(9,1,10,16)          -38.2388         estimate D2E/DX2                !
 ! D24   D(9,1,10,24)           82.4275         estimate D2E/DX2                !
 ! D25   D(9,1,10,32)         -157.1437         estimate D2E/DX2                !
 ! D26   D(11,1,10,16)        -133.727          estimate D2E/DX2                !
 ! D27   D(11,1,10,24)         -13.0608         estimate D2E/DX2                !
 ! D28   D(11,1,10,32)         107.368          estimate D2E/DX2                !
 ! D29   D(7,1,11,17)           53.2474         estimate D2E/DX2                !
 ! D30   D(7,1,11,25)          173.9137         estimate D2E/DX2                !
 ! D31   D(7,1,11,33)          -65.6575         estimate D2E/DX2                !
 ! D32   D(8,1,11,17)          -38.2388         estimate D2E/DX2                !
 ! D33   D(8,1,11,25)           82.4275         estimate D2E/DX2                !
 ! D34   D(8,1,11,33)         -157.1437         estimate D2E/DX2                !
 ! D35   D(9,1,11,17)          143.802          estimate D2E/DX2                !
 ! D36   D(9,1,11,25)          -95.5317         estimate D2E/DX2                !
 ! D37   D(9,1,11,33)           24.8971         estimate D2E/DX2                !
 ! D38   D(10,1,11,17)        -133.727          estimate D2E/DX2                !
 ! D39   D(10,1,11,25)         -13.0608         estimate D2E/DX2                !
 ! D40   D(10,1,11,33)         107.368          estimate D2E/DX2                !
 ! D41   D(1,6,14,4)           176.7793         estimate D2E/DX2                !
 ! D42   D(1,6,14,28)           -2.2285         estimate D2E/DX2                !
 ! D43   D(1,7,15,5)           176.7793         estimate D2E/DX2                !
 ! D44   D(1,7,15,29)           -2.2285         estimate D2E/DX2                !
 ! D45   D(1,8,13,3)           171.5009         estimate D2E/DX2                !
 ! D46   D(1,8,13,17)           -7.7122         estimate D2E/DX2                !
 ! D47   D(1,9,12,2)           171.5009         estimate D2E/DX2                !
 ! D48   D(1,9,12,16)           -7.7122         estimate D2E/DX2                !
 ! D49   D(1,10,16,12)          42.0655         estimate D2E/DX2                !
 ! D50   D(1,10,16,28)         -78.9283         estimate D2E/DX2                !
 ! D51   D(1,10,16,31)         160.2464         estimate D2E/DX2                !
 ! D52   D(24,10,16,12)        -75.6622         estimate D2E/DX2                !
 ! D53   D(24,10,16,28)        163.344          estimate D2E/DX2                !
 ! D54   D(24,10,16,31)         42.5187         estimate D2E/DX2                !
 ! D55   D(32,10,16,12)        160.8194         estimate D2E/DX2                !
 ! D56   D(32,10,16,28)         39.8256         estimate D2E/DX2                !
 ! D57   D(32,10,16,31)        -80.9998         estimate D2E/DX2                !
 ! D58   D(1,10,24,20)         158.6499         estimate D2E/DX2                !
 ! D59   D(1,10,24,22)         -83.3393         estimate D2E/DX2                !
 ! D60   D(1,10,24,25)          36.0645         estimate D2E/DX2                !
 ! D61   D(16,10,24,20)        -86.2939         estimate D2E/DX2                !
 ! D62   D(16,10,24,22)         31.7169         estimate D2E/DX2                !
 ! D63   D(16,10,24,25)        151.1208         estimate D2E/DX2                !
 ! D64   D(32,10,24,20)         37.7586         estimate D2E/DX2                !
 ! D65   D(32,10,24,22)        155.7694         estimate D2E/DX2                !
 ! D66   D(32,10,24,25)        -84.8267         estimate D2E/DX2                !
 ! D67   D(1,11,17,13)          42.0655         estimate D2E/DX2                !
 ! D68   D(1,11,17,29)         -78.9283         estimate D2E/DX2                !
 ! D69   D(1,11,17,30)         160.2464         estimate D2E/DX2                !
 ! D70   D(25,11,17,13)        -75.6622         estimate D2E/DX2                !
 ! D71   D(25,11,17,29)        163.344          estimate D2E/DX2                !
 ! D72   D(25,11,17,30)         42.5187         estimate D2E/DX2                !
 ! D73   D(33,11,17,13)        160.8194         estimate D2E/DX2                !
 ! D74   D(33,11,17,29)         39.8256         estimate D2E/DX2                !
 ! D75   D(33,11,17,30)        -80.9998         estimate D2E/DX2                !
 ! D76   D(1,11,25,21)         158.6499         estimate D2E/DX2                !
 ! D77   D(1,11,25,23)         -83.3393         estimate D2E/DX2                !
 ! D78   D(1,11,25,24)          36.0645         estimate D2E/DX2                !
 ! D79   D(17,11,25,21)        -86.2939         estimate D2E/DX2                !
 ! D80   D(17,11,25,23)         31.7169         estimate D2E/DX2                !
 ! D81   D(17,11,25,24)        151.1208         estimate D2E/DX2                !
 ! D82   D(33,11,25,21)         37.7586         estimate D2E/DX2                !
 ! D83   D(33,11,25,23)        155.7694         estimate D2E/DX2                !
 ! D84   D(33,11,25,24)        -84.8267         estimate D2E/DX2                !
 ! D85   D(2,12,16,10)         156.8866         estimate D2E/DX2                !
 ! D86   D(2,12,16,28)         -82.6578         estimate D2E/DX2                !
 ! D87   D(2,12,16,31)          37.935          estimate D2E/DX2                !
 ! D88   D(9,12,16,10)         -23.8634         estimate D2E/DX2                !
 ! D89   D(9,12,16,28)          96.5922         estimate D2E/DX2                !
 ! D90   D(9,12,16,31)        -142.815          estimate D2E/DX2                !
 ! D91   D(3,13,17,11)         156.8866         estimate D2E/DX2                !
 ! D92   D(3,13,17,29)         -82.6578         estimate D2E/DX2                !
 ! D93   D(3,13,17,30)          37.935          estimate D2E/DX2                !
 ! D94   D(8,13,17,11)         -23.8634         estimate D2E/DX2                !
 ! D95   D(8,13,17,29)          96.5922         estimate D2E/DX2                !
 ! D96   D(8,13,17,30)        -142.815          estimate D2E/DX2                !
 ! D97   D(4,14,28,16)         168.8591         estimate D2E/DX2                !
 ! D98   D(4,14,28,19)          45.9589         estimate D2E/DX2                !
 ! D99   D(4,14,28,27)         -67.9995         estimate D2E/DX2                !
 ! D100  D(6,14,28,16)         -12.0845         estimate D2E/DX2                !
 ! D101  D(6,14,28,19)        -134.9847         estimate D2E/DX2                !
 ! D102  D(6,14,28,27)         111.0569         estimate D2E/DX2                !
 ! D103  D(5,15,29,17)         168.8591         estimate D2E/DX2                !
 ! D104  D(5,15,29,18)          45.9589         estimate D2E/DX2                !
 ! D105  D(5,15,29,26)         -67.9995         estimate D2E/DX2                !
 ! D106  D(7,15,29,17)         -12.0845         estimate D2E/DX2                !
 ! D107  D(7,15,29,18)        -134.9847         estimate D2E/DX2                !
 ! D108  D(7,15,29,26)         111.0569         estimate D2E/DX2                !
 ! D109  D(10,16,28,14)         57.6479         estimate D2E/DX2                !
 ! D110  D(10,16,28,19)        179.9911         estimate D2E/DX2                !
 ! D111  D(10,16,28,27)        -64.3632         estimate D2E/DX2                !
 ! D112  D(12,16,28,14)        -60.3484         estimate D2E/DX2                !
 ! D113  D(12,16,28,19)         61.9947         estimate D2E/DX2                !
 ! D114  D(12,16,28,27)        177.6404         estimate D2E/DX2                !
 ! D115  D(31,16,28,14)        179.1138         estimate D2E/DX2                !
 ! D116  D(31,16,28,19)        -58.543          estimate D2E/DX2                !
 ! D117  D(31,16,28,27)         57.1027         estimate D2E/DX2                !
 ! D118  D(11,17,29,15)         57.6479         estimate D2E/DX2                !
 ! D119  D(11,17,29,18)        179.9911         estimate D2E/DX2                !
 ! D120  D(11,17,29,26)        -64.3632         estimate D2E/DX2                !
 ! D121  D(13,17,29,15)        -60.3484         estimate D2E/DX2                !
 ! D122  D(13,17,29,18)         61.9947         estimate D2E/DX2                !
 ! D123  D(13,17,29,26)        177.6404         estimate D2E/DX2                !
 ! D124  D(30,17,29,15)        179.1138         estimate D2E/DX2                !
 ! D125  D(30,17,29,18)        -58.543          estimate D2E/DX2                !
 ! D126  D(30,17,29,26)         57.1027         estimate D2E/DX2                !
 ! D127  D(10,24,25,11)        -47.3777         estimate D2E/DX2                !
 ! D128  D(10,24,25,21)       -169.2537         estimate D2E/DX2                !
 ! D129  D(10,24,25,23)         70.3992         estimate D2E/DX2                !
 ! D130  D(20,24,25,11)       -169.2537         estimate D2E/DX2                !
 ! D131  D(20,24,25,21)         68.8703         estimate D2E/DX2                !
 ! D132  D(20,24,25,23)        -51.4768         estimate D2E/DX2                !
 ! D133  D(22,24,25,11)         70.3992         estimate D2E/DX2                !
 ! D134  D(22,24,25,21)        -51.4768         estimate D2E/DX2                !
 ! D135  D(22,24,25,23)       -171.8239         estimate D2E/DX2                !
 --------------------------------------------------------------------------------
 Trust Radius=3.00D-01 FncErr=1.00D-07 GrdErr=1.00D-06 EigMax=2.50D+02 EigMin=1.00D-04
 Number of steps in this run=    198 maximum allowed number of steps=    198.
 GradGradGradGradGradGradGradGradGradGradGradGradGradGradGradGradGradGrad

 Leave Link  103 at Thu Nov 13 12:25:58 2025, MaxMem=  5368709120 cpu:               0.2 elap:               0.1
 (Enter /afs/ics.muni.cz/software/g16-C.01/avx2/g16/l202.exe)
                          Input orientation:                          
 ---------------------------------------------------------------------
 Center     Atomic      Atomic             Coordinates (Angstroms)
 Number     Number       Type             X           Y           Z
 ---------------------------------------------------------------------
      1         27           0        0.000000    0.052128    0.000000
      2          8           0        3.193551   -0.372172    2.217079
      3          8           0       -3.193551   -0.372172   -2.217079
      4          8           0        2.875867    2.396558   -1.673280
      5          8           0       -2.875867    2.396558    1.673280
      6          8           0        1.089384    1.446748   -0.769142
      7          8           0       -1.089384    1.446748    0.769142
      8          8           0       -1.076842    0.002718   -1.590018
      9          8           0        1.076842    0.002718    1.590018
     10          7           0        1.223868   -1.355462   -0.573739
     11          7           0       -1.223868   -1.355462    0.573739
     12          6           0        2.292021   -0.400752    1.386277
     13          6           0       -2.292021   -0.400752   -1.386277
     14          6           0        2.324900    1.428668   -1.137869
     15          6           0       -2.324900    1.428668    1.137869
     16          6           0        2.546962   -0.926852   -0.041618
     17          6           0       -2.546962   -0.926852    0.041618
     18          1           0       -4.124143    0.450398    0.520388
     19          1           0        4.124143    0.450398   -0.520388
     20          1           0        1.160383   -3.493442   -0.575976
     21          1           0       -1.160383   -3.493442    0.575976
     22          1           0        1.140311   -2.729912    1.016796
     23          1           0       -1.140311   -2.729912   -1.016796
     24          6           0        0.758201   -2.657062   -0.001659
     25          6           0       -0.758201   -2.657062    0.001659
     26          1           0       -3.364528   -0.261582    1.924377
     27          1           0        3.364528   -0.261582   -1.924377
     28          6           0        3.157693    0.155578   -0.932829
     29          6           0       -3.157693    0.155578    0.932829
     30          1           0       -3.229250   -1.778802   -0.007708
     31          1           0        3.229250   -1.778802    0.007708
     32          1           0        1.246842   -1.415252   -1.590798
     33          1           0       -1.246842   -1.415252    1.590798
 ---------------------------------------------------------------------
                    Distance matrix (angstroms):
                    1          2          3          4          5
     1  Co   0.000000
     2  O    3.910785   0.000000
     3  O    3.910785   7.775400   0.000000
     4  O    4.070237   4.785571   6.693237   0.000000
     5  O    4.070237   6.693237   4.785571   6.654465   0.000000
     6  O    1.929586   4.080871   4.873247   2.216105   4.752976
     7  O    1.929586   4.873247   4.080871   4.752976   2.216105
     8  O    1.920986   5.733305   2.239243   4.621829   4.429004
     9  O    1.920986   2.239243   5.733305   4.429004   4.621829
    10  N    1.951497   3.554600   4.814667   4.244496   5.994546
    11  N    1.951497   4.814667   3.554600   5.994546   4.244496
    12  C    2.716657   1.226298   6.563269   4.186491   5.883398
    13  C    2.716657   6.563269   1.226298   5.883398   4.186491
    14  C    2.931684   3.905542   5.904323   1.235735   5.990605
    15  C    2.931684   5.904323   3.905542   5.990605   1.235735
    16  C    2.728947   2.414014   6.163911   3.716928   6.587337
    17  C    2.728947   6.163911   2.414014   6.587337   3.716928
    18  H    4.175881   7.556722   3.006052   7.589457   2.583582
    19  H    4.175881   3.006052   7.556722   2.583582   7.589457
    20  H    3.774825   4.655884   5.602882   6.232099   7.486158
    21  H    3.774825   5.602882   4.655884   7.486158   6.232099
    22  H    3.173945   3.348942   5.899089   6.043952   6.545330
    23  H    3.173945   5.899089   3.348942   6.545330   6.043952
    24  C    2.813287   4.009296   5.073968   5.728691   6.446002
    25  C    2.813287   5.073968   4.009296   6.446002   5.728691
    26  H    3.888661   6.565539   4.146459   7.677979   2.714323
    27  H    3.888661   4.146459   6.565539   2.714323   7.677979
    28  C    3.294222   3.194014   6.501241   2.376907   6.943892
    29  C    3.294222   6.501241   3.194014   6.943892   2.376907
    30  H    3.712199   6.941229   2.619390   7.581570   4.514890
    31  H    3.712199   2.619390   6.941229   4.514890   7.581570
    32  H    2.497690   4.402002   4.604057   4.146133   6.494677
    33  H    2.497690   4.604057   4.402002   6.494677   4.146133
                    6          7          8          9         10
     6  O    0.000000
     7  O    2.667087   0.000000
     8  O    2.729761   2.766047   0.000000
     9  O    2.766047   2.729761   3.840700   0.000000
    10  N    2.812232   3.873867   2.858451   2.558928   0.000000
    11  N    3.873867   2.812232   2.558928   2.858451   2.703354
    12  C    3.083087   3.902309   4.513353   1.296518   2.427774
    13  C    3.902309   3.083087   1.296518   4.513353   3.732716
    14  C    1.289490   3.910800   3.716130   3.321498   3.046620
    15  C    3.910800   1.289490   3.321498   3.716130   4.824390
    16  C    2.878854   4.417502   4.048901   2.384867   1.489106
    17  C    4.417502   2.878854   2.384867   4.048901   3.844676
    18  H    5.462277   3.203803   3.733668   5.328675   5.749737
    19  H    3.203803   5.462277   5.328675   3.733668   3.416954
    20  H    4.944475   5.592519   4.272773   4.113592   2.138924
    21  H    5.592519   4.944475   4.113592   4.272773   3.402566
    22  H    4.542759   4.741030   4.379327   2.792826   2.103781
    23  H    4.741030   4.542759   2.792826   4.379327   2.770335
    24  C    4.188075   4.566066   3.600652   3.115990   1.496090
    25  C    4.566066   4.188075   3.115990   3.600652   2.440050
    26  H    5.478208   3.070706   4.201706   4.461773   5.337653
    27  H    3.070706   5.478208   4.461773   4.201706   2.757393
    28  C    2.443730   4.754103   4.287954   3.273845   2.480296
    29  C    4.754103   2.443730   3.273845   4.287954   4.873507
    30  H    5.443763   3.947999   3.210978   4.926354   4.508866
    31  H    3.947999   5.443763   4.926354   3.210978   2.130458
    32  H    2.981771   4.383870   2.722158   3.486707   1.019074
    33  H    4.383870   2.981771   3.486707   2.722158   3.285301
                   11         12         13         14         15
    11  N    0.000000
    12  C    3.732716   0.000000
    13  C    2.427774   5.357285   0.000000
    14  C    4.824390   3.117559   4.972368   0.000000
    15  C    3.046620   4.972368   3.117559   5.176836   0.000000
    16  C    3.844676   1.542939   5.049817   2.607595   5.538475
    17  C    1.489106   5.049817   1.542939   5.538475   2.607595
    18  H    3.416954   6.530037   2.777859   6.730304   2.139059
    19  H    5.749737   2.777859   6.530037   2.139059   6.730304
    20  H    3.402566   3.833507   4.705360   5.089105   6.269899
    21  H    2.138924   4.705360   3.833507   6.269899   5.089105
    22  H    2.770335   2.624488   4.793814   4.831109   5.414438
    23  H    2.103781   4.793814   2.624488   5.414438   4.831109
    24  C    2.440050   3.061030   4.038806   4.520919   5.243780
    25  C    1.496090   4.038806   3.061030   5.243780   4.520919
    26  H    2.757393   5.683789   3.482825   6.678614   2.134564
    27  H    5.337653   3.482825   5.683789   2.134564   6.678614
    28  C    4.873507   2.537153   5.496772   1.535039   5.997281
    29  C    2.480296   5.496772   2.537153   5.997281   1.535039
    30  H    2.130458   5.858895   2.162839   6.512581   3.523927
    31  H    4.508866   2.162839   5.858895   3.523927   6.512581
    32  H    3.285301   3.314300   3.687084   3.074937   5.318914
    33  H    1.019074   3.687084   3.314300   5.318914   3.074937
                   16         17         18         19         20
    16  C    0.000000
    17  C    5.094604   0.000000
    18  H    6.834934   2.147915   0.000000
    19  H    2.147915   6.834934   8.313691   0.000000
    20  H    2.965725   4.551177   6.684467   4.933644   0.000000
    21  H    4.551177   2.965725   4.933644   6.684467   2.590935
    22  H    2.519907   4.218765   6.170516   4.623912   1.766437
    23  H    4.218765   2.519907   4.623912   6.170516   2.463837
    24  C    2.488954   3.730899   5.810863   4.610310   1.091385
    25  C    3.730899   2.488954   4.610310   5.810863   2.171211
    26  H    6.265256   2.157725   1.747889   7.909740   6.096843
    27  H    2.157725   6.265256   7.909740   1.747889   4.137796
    28  C    1.529347   5.887639   7.431279   1.091353   4.175158
    29  C    5.887639   1.529347   1.091353   7.431279   5.851292
    30  H    5.838801   1.092597   2.459482   7.700946   4.746767
    31  H    1.092597   5.838801   7.700946   2.459482   2.749707
    32  H    2.080578   4.158878   6.065084   3.592394   2.314349
    33  H    4.158878   2.080578   3.592394   6.065084   3.848183
                   21         22         23         24         25
    21  H    0.000000
    22  H    2.463837   0.000000
    23  H    1.766437   3.055606   0.000000
    24  C    2.171211   1.090213   2.154102   0.000000
    25  C    1.091385   2.154102   1.090213   1.516406   0.000000
    26  H    4.137796   5.216314   4.437374   5.142454   4.028412
    27  H    6.096843   4.437374   5.216314   4.028412   5.142454
    28  C    5.851292   4.024540   5.177446   3.812556   4.911053
    29  C    4.175158   5.177446   4.024540   4.911053   3.812556
    30  H    2.749707   4.587732   2.507296   4.083031   2.622501
    31  H    4.746767   2.507296   4.587732   2.622501   4.083031
    32  H    3.848183   2.922195   2.785015   2.075145   2.845735
    33  H    2.314349   2.785015   2.922195   2.845735   2.075145
                   26         27         28         29         30
    26  H    0.000000
    27  H    7.751973   0.000000
    28  C    7.132812   1.095432   0.000000
    29  C    1.095432   7.132812   6.585195   0.000000
    30  H    2.460327   7.032317   6.737264   2.152105   0.000000
    31  H    7.032317   2.460327   2.152105   6.737264   6.458518
    32  H    5.912033   2.434507   2.559645   5.313768   4.761695
    33  H    2.434507   5.912033   5.313768   2.559645   2.572417
                   31         32         33
    31  H    0.000000
    32  H    2.572417   0.000000
    33  H    4.761695   4.042402   0.000000
 Stoichiometry    C10H12CoN2O8(1-)
 Framework group  C2[C2(Co),X(C10H12N2O8)]
 Deg. of freedom    47
 Full point group                 C2      NOp   2
 Largest Abelian subgroup         C2      NOp   2
 Largest concise Abelian subgroup C2      NOp   2
                         Standard orientation:                         
 ---------------------------------------------------------------------
 Center     Atomic      Atomic             Coordinates (Angstroms)
 Number     Number       Type             X           Y           Z
 ---------------------------------------------------------------------
      1         27           0       -0.000000   -0.000000    0.104386
      2          8           0       -3.031009   -2.434583   -0.319914
      3          8           0        3.031009    2.434583   -0.319914
      4          8           0        0.789958   -3.232095    2.448816
      5          8           0       -0.789958    3.232095    2.448816
      6          8           0        0.428994   -1.262657    1.499006
      7          8           0       -0.428994    1.262657    1.499006
      8          8           0        1.829953    0.582252    0.054976
      9          8           0       -1.829953   -0.582252    0.054976
     10          7           0        0.203497   -1.336271   -1.303204
     11          7           0       -0.203497    1.336271   -1.303204
     12          6           0       -1.978833   -1.805365   -0.348494
     13          6           0        1.978833    1.805365   -0.348494
     14          6           0        0.432579   -2.552015    1.480926
     15          6           0       -0.432579    2.552015    1.480926
     16          6           0       -0.681669   -2.454399   -0.874594
     17          6           0        0.681669    2.454399   -0.874594
     18          1           0        0.669348    4.102601    0.502656
     19          1           0       -0.669348   -4.102601    0.502656
     20          1           0        0.223628   -1.276020   -3.441184
     21          1           0       -0.223628    1.276020   -3.441184
     22          1           0       -1.298198   -0.805521   -2.677654
     23          1           0        1.298198    0.805521   -2.677654
     24          6           0       -0.213216   -0.727606   -2.604804
     25          6           0        0.213216    0.727606   -2.604804
     26          1           0       -0.892324    3.771874   -0.209324
     27          1           0        0.892324   -3.771874   -0.209324
     28          6           0        0.000000   -3.292597    0.207836
     29          6           0       -0.000000    3.292597    0.207836
     30          1           0        0.922274    3.094758   -1.726544
     31          1           0       -0.922274   -3.094758   -1.726544
     32          1           0        1.172376   -1.646447   -1.362994
     33          1           0       -1.172376    1.646447   -1.362994
 ---------------------------------------------------------------------
 Rotational constants (GHZ):           0.4720460           0.2620120           0.2453509
 Leave Link  202 at Thu Nov 13 12:26:01 2025, MaxMem=  5368709120 cpu:               0.8 elap:               0.1
 (Enter /afs/ics.muni.cz/software/g16-C.01/avx2/g16/l301.exe)
 Standard basis: 6-311++G(d,p) (5D, 7F)
 Ernie: Thresh=  0.10000D-02 Tol=  0.10000D-05 Strict=F.
 There are   309 symmetry adapted cartesian basis functions of A   symmetry.
 There are   300 symmetry adapted cartesian basis functions of B   symmetry.
 There are   294 symmetry adapted basis functions of A   symmetry.
 There are   288 symmetry adapted basis functions of B   symmetry.
   582 basis functions,   922 primitive gaussians,   609 cartesian basis functions
    89 alpha electrons       89 beta electrons
       nuclear repulsion energy      2514.3891116975 Hartrees.
 IExCor=  402 DFT=T Ex+Corr=B3LYP ExCW=0 ScaHFX=  0.200000
 ScaDFX=  0.800000  0.720000  1.000000  0.810000 ScalE2=  1.000000  1.000000
 IRadAn=      5 IRanWt=     -1 IRanGd=            0 ICorTp=0 IEmpDi=  4
 NAtoms=   33 NActive=   33 NUniq=   17 SFac= 3.77D+00 NAtFMM=   60 NAOKFM=F Big=F
 Integral buffers will be    131072 words long.
 Raffenetti 2 integral format.
 Two-electron integral symmetry is turned on.
 ------------------------------------------------------------------------------
 Polarizable Continuum Model (PCM)
 =================================
 Model                : C-PCM.
 Atomic radii         : UFF (Universal Force Field).
 Polarization charges : Total charges.
 Charge compensation  : None.
 Solution method      : On-the-fly selection.
 Cavity type          : Scaled VdW (van der Waals Surface) (Alpha=1.100).
 Cavity algorithm     : GePol (No added spheres)
                        Default sphere list used, NSphG=   33.
                        Lebedev-Laikov grids with approx.  5.0 points / Ang**2.
                        Smoothing algorithm: York/Karplus (Gamma=1.0000).
                        Polarization charges: spherical gaussians, with
                                              point-specific exponents (IZeta= 3).
                        Self-potential: point-specific (ISelfS= 7).
                        Self-field    : sphere-specific E.n sum rule (ISelfD= 2).
 1st derivatives      : Analytical E(r).r(x)/FMM algorithm (CHGder, D1EAlg=3).
                        Cavity 1st derivative terms included.
 Solvent              : Water, Eps=  78.355300 Eps(inf)=   1.777849
 ------------------------------------------------------------------------------
 GePol: Number of generator spheres                  =      33
 GePol: Total number of spheres                      =      33
 GePol: Number of exposed spheres                    =      32 ( 96.97%)
 GePol: Number of points                             =    2428
 GePol: Average weight of points                     =       0.13
 GePol: Minimum weight of points                     =   0.20D-11
 GePol: Maximum weight of points                     =    0.20577
 GePol: Number of points with low weight             =     176
 GePol: Fraction of low-weight points (<1% of avg)   =       7.25%
 GePol: Cavity surface area                          =    312.422 Ang**2
 GePol: Cavity volume                                =    352.897 Ang**3
 Leave Link  301 at Thu Nov 13 12:26:05 2025, MaxMem=  5368709120 cpu:               5.7 elap:               0.4
 (Enter /afs/ics.muni.cz/software/g16-C.01/avx2/g16/l302.exe)
 NPDir=0 NMtPBC=     1 NCelOv=     1 NCel=       1 NClECP=     1 NCelD=      1
         NCelK=      1 NCelE2=     1 NClLst=     1 CellRange=     0.0.
 One-electron integrals computed using PRISM.
 One-electron integral symmetry used in STVInt
 NBasis=   582 RedAO= T EigKep=  5.24D-06  NBF=   294   288
 NBsUse=   582 1.00D-06 EigRej= -1.00D+00 NBFU=   294   288
 Precomputing XC quadrature grid using
 IXCGrd= 4 IRadAn=           5 IRanWt=          -1 IRanGd=           0 AccXCQ= 0.00D+00.
 Generated NRdTot=       0 NPtTot=           0 NUsed=           0 NTot=          32
 NSgBfM=   597   597   597   597   597 MxSgAt=    33 MxSgA2=    33.
 Leave Link  302 at Thu Nov 13 12:26:10 2025, MaxMem=  5368709120 cpu:              24.0 elap:               1.9
 (Enter /afs/ics.muni.cz/software/g16-C.01/avx2/g16/l303.exe)
 DipDrv:  MaxL=1.
 Leave Link  303 at Thu Nov 13 12:26:13 2025, MaxMem=  5368709120 cpu:               4.4 elap:               0.3
 (Enter /afs/ics.muni.cz/software/g16-C.01/avx2/g16/l401.exe)
 ExpMin= 1.33D-02 ExpMax= 2.71D+05 ExpMxC= 9.06D+03 IAcc=3 IRadAn=         5 AccDes= 0.00D+00
 Harris functional with IExCor=  402 and IRadAn=       5 diagonalized for initial guess.
 HarFok:  IExCor=  402 AccDes= 0.00D+00 IRadAn=         5 IDoV= 1 UseB2=F ITyADJ=14
 ICtDFT=  3500011 ScaDFX=  1.000000  1.000000  1.000000  1.000000
 FoFCou: FMM=F IPFlag=           0 FMFlag=      100000 FMFlg1=           0
         NFxFlg=           0 DoJE=T BraDBF=F KetDBF=T FulRan=T
         wScrn=  0.000000 ICntrl=       500 IOpCl=  0 I1Cent=   200000004 NGrid=           0
         NMat0=    1 NMatS0=      1 NMatT0=    0 NMatD0=    1 NMtDS0=    0 NMtDT0=    0
 Petite list used in FoFCou.
 Harris En= -2483.11083595701    
 JPrj=0 DoOrth=F DoCkMO=F.
 Initial guess orbital symmetries:
       Occupied  (A) (A) (B) (A) (B) (A) (B) (B) (A) (B) (A) (A)
                 (B) (B) (A) (B) (A) (A) (B) (A) (B) (A) (B) (B)
                 (A) (A) (B) (A) (B) (A) (B) (A) (B) (A) (B) (A)
                 (B) (A) (B) (A) (B) (A) (B) (A) (B) (A) (B) (A)
                 (B) (A) (B) (A) (A) (B) (A) (B) (B) (B) (A) (A)
                 (B) (A) (B) (A) (B) (A) (B) (B) (A) (B) (A) (A)
                 (A) (A) (B) (B) (A) (B) (A) (B) (B) (A) (A) (B)
                 (A) (B) (A) (A) (B)
       Virtual   (A) (B) (B) (A) (A) (B) (A) (B) (A) (B) (A) (B)
                 (A) (A) (B) (A) (A) (B) (B) (B) (A) (B) (A) (B)
                 (A) (B) (A) (B) (A) (B) (A) (B) (A) (B) (A) (A)
                 (B) (B) (A) (A) (A) (B) (B) (B) (A) (B) (A) (B)
                 (A) (B) (A) (A) (B) (A) (B) (A) (A) (B) (B) (B)
                 (B) (A) (B) (A) (A) (A) (B) (B) (A) (B) (A) (B)
                 (A) (B) (A) (A) (B) (B) (A) (B) (A) (B) (A) (B)
                 (B) (A) (B) (A) (A) (B) (A) (A) (B) (B) (A) (B)
                 (A) (A) (A) (B) (B) (A) (B) (A) (B) (B) (A) (A)
                 (B) (A) (A) (B) (B) (B) (A) (B) (A) (A) (B) (A)
                 (B) (B) (A) (A) (B) (A) (B) (A) (B) (A) (B) (B)
                 (B) (A) (B) (A) (A) (B) (B) (B) (A) (A) (A) (B)
                 (A) (A) (B) (A) (A) (A) (B) (B) (B) (A) (A) (B)
                 (B) (A) (B) (A) (B) (A) (B) (B) (A) (B) (A) (A)
                 (B) (B) (B) (A) (A) (B) (A) (B) (A) (A) (B) (A)
                 (B) (A) (B) (B) (A) (B) (A) (A) (A) (B) (A) (B)
                 (B) (A) (B) (A) (A) (B) (A) (B) (B) (B) (A) (B)
                 (A) (A) (B) (A) (B) (B) (A) (A) (B) (B) (A) (A)
                 (B) (B) (A) (A) (B) (B) (A) (B) (A) (B) (B) (A)
                 (B) (A) (A) (A) (B) (A) (B) (A) (B) (B) (A) (B)
                 (A) (B) (B) (A) (A) (A) (B) (A) (A) (B) (B) (A)
                 (B) (A) (B) (B) (A) (A) (B) (A) (A) (B) (B) (A)
                 (A) (B) (B) (A) (B) (B) (A) (A) (B) (B) (B) (A)
                 (B) (A) (A) (B) (A) (A) (B) (B) (A) (B) (A) (A)
                 (B) (A) (A) (B) (B) (A) (A) (B) (B) (A) (B) (A)
                 (A) (B) (B) (A) (B) (B) (A) (A) (B) (A) (B) (A)
                 (A) (A) (B) (B) (A) (B) (B) (B) (A) (B) (A) (B)
                 (A) (A) (B) (A) (B) (B) (A) (A) (B) (A) (A) (B)
                 (B) (A) (B) (B) (A) (B) (A) (A) (B) (A) (B) (A)
                 (B) (A) (B) (B) (B) (A) (A) (A) (B) (B) (A) (A)
                 (A) (B) (B) (B) (A) (B) (A) (B) (A) (B) (B) (A)
                 (A) (B) (A) (A) (B) (B) (A) (A) (B) (A) (B) (A)
                 (B) (B) (A) (B) (A) (A) (B) (A) (B) (A) (A) (B)
                 (B) (A) (B) (A) (B) (A) (A) (B) (A) (B) (B) (A)
                 (B) (A) (B) (A) (B) (A) (B) (B) (A) (B) (A) (A)
                 (B) (B) (B) (A) (A) (B) (A) (A) (B) (A) (B) (A)
                 (B) (A) (B) (A) (B) (A) (B) (A) (B) (A) (B) (B)
                 (B) (A) (A) (B) (A) (A) (B) (A) (B) (A) (B) (A)
                 (B) (A) (B) (B) (A) (A) (B) (A) (B) (A) (B) (B)
                 (A) (B) (A) (B) (A) (B) (A) (B) (A) (A) (B) (A)
                 (B) (A) (B) (A) (B) (B) (A) (B) (A) (B) (A) (A)
                 (A)
 The electronic state of the initial guess is 1-A.
 Leave Link  401 at Thu Nov 13 12:26:18 2025, MaxMem=  5368709120 cpu:              34.5 elap:               2.6
 (Enter /afs/ics.muni.cz/software/g16-C.01/avx2/g16/l502.exe)
 Integral symmetry usage will be decided dynamically.
 Closed shell SCF:
 Using DIIS extrapolation, IDIIS=  1040.
 NGot=  5368709120 LenX=  5367949699 LenY=  5367578209
 Requested convergence on RMS density matrix=1.00D-08 within  32 cycles.
 Requested convergence on MAX density matrix=1.00D-06.
 Requested convergence on             energy=1.00D-06.
 No special actions if energy rises.
 Fock matrices will be formed incrementally for  20 cycles.

 Cycle   1  Pass 1  IDiag  1:
 FoFJK:  IHMeth= 1 ICntrl=       0 DoSepK=F KAlg= 0 I1Cent=           0 FoldK=F
 IRaf= 880000000 NMat=       1 IRICut=       1 DoRegI=T DoRafI=F ISym2E= 1 IDoP0=0 IntGTp=1.
 FoFCou: FMM=F IPFlag=           0 FMFlag=      100000 FMFlg1=           0
         NFxFlg=           0 DoJE=F BraDBF=F KetDBF=F FulRan=T
         wScrn=  0.000000 ICntrl=         0 IOpCl=  0 I1Cent=           0 NGrid=           0
         NMat0=    1 NMatS0=      1 NMatT0=    0 NMatD0=    1 NMtDS0=    0 NMtDT0=    0
 Petite list used in FoFCou.
 Inv3:  Mode=1 IEnd=    17685552.
 Iteration    1 A*A^-1 deviation from unit magnitude is 3.55D-15 for    107.
 Iteration    1 A*A^-1 deviation from orthogonality  is 2.00D-15 for   2305    498.
 Iteration    1 A^-1*A deviation from unit magnitude is 3.55D-15 for    107.
 Iteration    1 A^-1*A deviation from orthogonality  is 1.78D-15 for   2274    712.
 E= -2482.32204110490    
 DIIS: error= 3.79D-02 at cycle   1 NSaved=   1.
 NSaved= 1 IEnMin= 1 EnMin= -2482.32204110490     IErMin= 1 ErrMin= 3.79D-02
 ErrMax= 3.79D-02  0.00D+00 EMaxC= 1.00D-01 BMatC= 1.53D+00 BMatP= 1.53D+00
 IDIUse=3 WtCom= 6.21D-01 WtEn= 3.79D-01
 Coeff-Com:  0.100D+01
 Coeff-En:   0.100D+01
 Coeff:      0.100D+01
 Gap=    -0.248 Goal=   None    Shift=    0.000
 GapD=   -0.248 DampG=0.250 DampE=0.250 DampFc=0.1250 IDamp=-1.
 Damping current iteration by 1.25D-01
 RMSDP=1.90D-02 MaxDP=2.92D+00              OVMax= 5.65D-01

 Cycle   2  Pass 1  IDiag  1:
 RMSU=  2.29D-03    CP:  1.03D+00
 E= -2482.47047736850     Delta-E=       -0.148436263602 Rises=F Damp=T
 DIIS: error= 3.12D-02 at cycle   2 NSaved=   2.
 NSaved= 2 IEnMin= 2 EnMin= -2482.47047736850     IErMin= 2 ErrMin= 3.12D-02
 ErrMax= 3.12D-02  0.00D+00 EMaxC= 1.00D-01 BMatC= 6.37D-01 BMatP= 1.53D+00
 IDIUse=3 WtCom= 6.88D-01 WtEn= 3.12D-01
 Coeff-Com: -0.761D+00 0.176D+01
 Coeff-En:   0.174D-01 0.983D+00
 Coeff:     -0.519D+00 0.152D+01
 Gap=     0.020 Goal=   None    Shift=    0.000
 RMSDP=8.34D-03 MaxDP=4.34D-01 DE=-1.48D-01 OVMax= 9.89D-01

 Cycle   3  Pass 1  IDiag  1:
 RMSU=  7.85D-03    CP:  9.37D-01  1.81D+00
 E= -2481.45505269921     Delta-E=        1.015424669290 Rises=F Damp=F
 DIIS: error= 6.17D-02 at cycle   3 NSaved=   3.
 NSaved= 3 IEnMin= 2 EnMin= -2482.47047736850     IErMin= 2 ErrMin= 3.12D-02
 ErrMax= 6.17D-02  0.00D+00 EMaxC= 1.00D-01 BMatC= 2.92D+00 BMatP= 6.37D-01
 IDIUse=2 WtCom= 0.00D+00 WtEn= 1.00D+00
 Coeff-En:   0.000D+00 0.786D+00 0.214D+00
 Coeff:      0.000D+00 0.786D+00 0.214D+00
 Gap=     0.367 Goal=   None    Shift=    0.000
 RMSDP=9.25D-03 MaxDP=1.76D+00 DE= 1.02D+00 OVMax= 2.95D-01

 Cycle   4  Pass 1  IDiag  1:
 RMSU=  3.63D-03    CP:  9.21D-01  3.00D+00  2.96D-02
 E= -2480.65911869524     Delta-E=        0.795934003972 Rises=F Damp=F
 DIIS: error= 1.21D-01 at cycle   4 NSaved=   4.
 NSaved= 4 IEnMin= 2 EnMin= -2482.47047736850     IErMin= 2 ErrMin= 3.12D-02
 ErrMax= 1.21D-01  0.00D+00 EMaxC= 1.00D-01 BMatC= 5.43D+00 BMatP= 6.37D-01
 IDIUse=2 WtCom= 0.00D+00 WtEn= 1.00D+00
 EnCoef did   100 forward-backward iterations
 Coeff-En:   0.438D+00 0.229D-01 0.256D+00 0.283D+00
 Coeff:      0.438D+00 0.229D-01 0.256D+00 0.283D+00
 Gap=     0.089 Goal=   None    Shift=    0.000
 RMSDP=4.21D-03 MaxDP=4.41D-01 DE= 7.96D-01 OVMax= 3.82D-01

 Cycle   5  Pass 1  IDiag  1:
 RMSU=  2.15D-03    CP:  8.98D-01  2.10D+00  1.73D-01  6.01D-01
 E= -2483.01916258313     Delta-E=       -2.360043887897 Rises=F Damp=F
 DIIS: error= 6.03D-03 at cycle   5 NSaved=   5.
 NSaved= 5 IEnMin= 5 EnMin= -2483.01916258313     IErMin= 5 ErrMin= 6.03D-03
 ErrMax= 6.03D-03  0.00D+00 EMaxC= 1.00D-01 BMatC= 4.42D-02 BMatP= 6.37D-01
 IDIUse=3 WtCom= 9.40D-01 WtEn= 6.03D-02
 Coeff-Com:  0.532D-01 0.882D-01 0.330D-01 0.578D-01 0.768D+00
 Coeff-En:   0.000D+00 0.000D+00 0.000D+00 0.000D+00 0.100D+01
 Coeff:      0.500D-01 0.828D-01 0.310D-01 0.543D-01 0.782D+00
 Gap=     0.222 Goal=   None    Shift=    0.000
 RMSDP=1.80D-03 MaxDP=3.64D-01 DE=-2.36D+00 OVMax= 6.73D-02

 Cycle   6  Pass 1  IDiag  1:
 RMSU=  1.35D-03    CP:  8.52D-01  1.99D+00  1.66D-01  6.53D-01  8.27D-01
 E= -2482.97811958564     Delta-E=        0.041042997495 Rises=F Damp=F
 DIIS: error= 1.10D-02 at cycle   6 NSaved=   6.
 NSaved= 6 IEnMin= 5 EnMin= -2483.01916258313     IErMin= 5 ErrMin= 6.03D-03
 ErrMax= 1.10D-02  0.00D+00 EMaxC= 1.00D-01 BMatC= 1.01D-01 BMatP= 4.42D-02
 IDIUse=2 WtCom= 0.00D+00 WtEn= 1.00D+00
 Coeff-En:   0.000D+00 0.000D+00 0.000D+00 0.000D+00 0.666D+00 0.334D+00
 Coeff:      0.000D+00 0.000D+00 0.000D+00 0.000D+00 0.666D+00 0.334D+00
 Gap=     0.183 Goal=   None    Shift=    0.000
 RMSDP=1.16D-03 MaxDP=1.15D-01 DE= 4.10D-02 OVMax= 6.20D-02

 Cycle   7  Pass 1  IDiag  1:
 RMSU=  5.53D-04    CP:  8.74D-01  2.12D+00  9.72D-02  6.94D-01  8.51D-01
                    CP:  5.41D-01
 E= -2483.03405169567     Delta-E=       -0.055932110030 Rises=F Damp=F
 DIIS: error= 6.98D-03 at cycle   7 NSaved=   7.
 NSaved= 7 IEnMin= 7 EnMin= -2483.03405169567     IErMin= 5 ErrMin= 6.03D-03
 ErrMax= 6.98D-03  0.00D+00 EMaxC= 1.00D-01 BMatC= 3.04D-02 BMatP= 4.42D-02
 IDIUse=3 WtCom= 9.40D-01 WtEn= 6.03D-02
 EnCoef did     4 forward-backward iterations
 Coeff-Com: -0.229D-01 0.523D-01 0.496D-02-0.120D-01 0.454D+00 0.223D+00
 Coeff-Com:  0.302D+00
 Coeff-En:   0.000D+00 0.000D+00 0.000D+00 0.000D+00 0.345D+00 0.284D-01
 Coeff-En:   0.627D+00
 Coeff:     -0.215D-01 0.491D-01 0.466D-02-0.113D-01 0.447D+00 0.211D+00
 Coeff:      0.321D+00
 Gap=     0.187 Goal=   None    Shift=    0.000
 RMSDP=5.39D-04 MaxDP=8.23D-02 DE=-5.59D-02 OVMax= 3.06D-02

 Cycle   8  Pass 1  IDiag  1:
 RMSU=  1.50D-04    CP:  8.80D-01  2.14D+00  1.37D-01  6.39D-01  9.32D-01
                    CP:  4.71D-01  5.28D-01
 E= -2483.04765979201     Delta-E=       -0.013608096343 Rises=F Damp=F
 DIIS: error= 1.25D-03 at cycle   8 NSaved=   8.
 NSaved= 8 IEnMin= 8 EnMin= -2483.04765979201     IErMin= 8 ErrMin= 1.25D-03
 ErrMax= 1.25D-03  0.00D+00 EMaxC= 1.00D-01 BMatC= 1.04D-03 BMatP= 3.04D-02
 IDIUse=3 WtCom= 9.87D-01 WtEn= 1.25D-02
 Coeff-Com: -0.480D-02 0.121D-01-0.378D-02-0.230D-02 0.178D+00 0.814D-01
 Coeff-Com:  0.150D+00 0.590D+00
 Coeff-En:   0.000D+00 0.000D+00 0.000D+00 0.000D+00 0.000D+00 0.000D+00
 Coeff-En:   0.276D-01 0.972D+00
 Coeff:     -0.474D-02 0.119D-01-0.374D-02-0.228D-02 0.176D+00 0.804D-01
 Coeff:      0.148D+00 0.595D+00
 Gap=     0.183 Goal=   None    Shift=    0.000
 RMSDP=1.65D-04 MaxDP=2.86D-02 DE=-1.36D-02 OVMax= 4.74D-03

 Cycle   9  Pass 1  IDiag  1:
 RMSU=  8.12D-05    CP:  8.76D-01  2.12D+00  1.34D-01  6.53D-01  9.27D-01
                    CP:  4.68D-01  5.81D-01  6.72D-01
 E= -2483.04812095685     Delta-E=       -0.000461164836 Rises=F Damp=F
 DIIS: error= 2.67D-04 at cycle   9 NSaved=   9.
 NSaved= 9 IEnMin= 9 EnMin= -2483.04812095685     IErMin= 9 ErrMin= 2.67D-04
 ErrMax= 2.67D-04  0.00D+00 EMaxC= 1.00D-01 BMatC= 8.10D-05 BMatP= 1.04D-03
 IDIUse=3 WtCom= 9.97D-01 WtEn= 2.67D-03
 Coeff-Com: -0.642D-02 0.828D-02-0.211D-02-0.492D-03 0.429D-01 0.172D-01
 Coeff-Com:  0.591D-01 0.362D+00 0.520D+00
 Coeff-En:   0.000D+00 0.000D+00 0.000D+00 0.000D+00 0.000D+00 0.000D+00
 Coeff-En:   0.000D+00 0.000D+00 0.100D+01
 Coeff:     -0.641D-02 0.826D-02-0.211D-02-0.491D-03 0.428D-01 0.172D-01
 Coeff:      0.589D-01 0.361D+00 0.521D+00
 Gap=     0.183 Goal=   None    Shift=    0.000
 RMSDP=6.23D-05 MaxDP=7.02D-03 DE=-4.61D-04 OVMax= 1.78D-03

 Cycle  10  Pass 1  IDiag  1:
 RMSU=  2.79D-05    CP:  8.77D-01  2.13D+00  1.31D-01  6.52D-01  9.26D-01
                    CP:  4.66D-01  6.05D-01  6.94D-01  6.80D-01
 E= -2483.04817108630     Delta-E=       -0.000050129457 Rises=F Damp=F
 DIIS: error= 2.01D-04 at cycle  10 NSaved=  10.
 NSaved=10 IEnMin=10 EnMin= -2483.04817108630     IErMin=10 ErrMin= 2.01D-04
 ErrMax= 2.01D-04  0.00D+00 EMaxC= 1.00D-01 BMatC= 2.35D-05 BMatP= 8.10D-05
 IDIUse=3 WtCom= 9.98D-01 WtEn= 2.01D-03
 Coeff-Com: -0.650D-02 0.710D-02-0.484D-03-0.259D-03 0.239D-02-0.118D-02
 Coeff-Com:  0.254D-01 0.151D+00 0.339D+00 0.484D+00
 Coeff-En:   0.000D+00 0.000D+00 0.000D+00 0.000D+00 0.000D+00 0.000D+00
 Coeff-En:   0.000D+00 0.000D+00 0.506D-01 0.949D+00
 Coeff:     -0.649D-02 0.708D-02-0.483D-03-0.258D-03 0.238D-02-0.118D-02
 Coeff:      0.254D-01 0.151D+00 0.338D+00 0.484D+00
 Gap=     0.183 Goal=   None    Shift=    0.000
 RMSDP=2.24D-05 MaxDP=3.47D-03 DE=-5.01D-05 OVMax= 6.39D-04

 Cycle  11  Pass 1  IDiag  1:
 RMSU=  1.03D-05    CP:  8.78D-01  2.13D+00  1.31D-01  6.53D-01  9.27D-01
                    CP:  4.68D-01  6.15D-01  7.09D-01  7.16D-01  7.10D-01
 E= -2483.04818287342     Delta-E=       -0.000011787113 Rises=F Damp=F
 DIIS: error= 7.46D-05 at cycle  11 NSaved=  11.
 NSaved=11 IEnMin=11 EnMin= -2483.04818287342     IErMin=11 ErrMin= 7.46D-05
 ErrMax= 7.46D-05  0.00D+00 EMaxC= 1.00D-01 BMatC= 4.11D-06 BMatP= 2.35D-05
 IDIUse=1 WtCom= 1.00D+00 WtEn= 0.00D+00
 Coeff-Com: -0.375D-02 0.405D-02 0.490D-04-0.799D-04-0.419D-02-0.303D-02
 Coeff-Com:  0.721D-02 0.208D-01 0.909D-01 0.250D+00 0.638D+00
 Coeff:     -0.375D-02 0.405D-02 0.490D-04-0.799D-04-0.419D-02-0.303D-02
 Coeff:      0.721D-02 0.208D-01 0.909D-01 0.250D+00 0.638D+00
 Gap=     0.183 Goal=   None    Shift=    0.000
 RMSDP=5.82D-06 MaxDP=4.46D-04 DE=-1.18D-05 OVMax= 2.37D-04

 Cycle  12  Pass 1  IDiag  1:
 RMSU=  3.34D-06    CP:  8.77D-01  2.13D+00  1.31D-01  6.54D-01  9.27D-01
                    CP:  4.68D-01  6.20D-01  7.11D-01  7.50D-01  7.34D-01
                    CP:  8.73D-01
 E= -2483.04818454390     Delta-E=       -0.000001670483 Rises=F Damp=F
 DIIS: error= 3.91D-05 at cycle  12 NSaved=  12.
 NSaved=12 IEnMin=12 EnMin= -2483.04818454390     IErMin=12 ErrMin= 3.91D-05
 ErrMax= 3.91D-05  0.00D+00 EMaxC= 1.00D-01 BMatC= 9.41D-07 BMatP= 4.11D-06
 IDIUse=1 WtCom= 1.00D+00 WtEn= 0.00D+00
 Coeff-Com: -0.175D-02 0.202D-02 0.392D-04 0.286D-05-0.231D-02-0.141D-02
 Coeff-Com:  0.491D-03-0.148D-01-0.507D-02 0.721D-01 0.392D+00 0.558D+00
 Coeff:     -0.175D-02 0.202D-02 0.392D-04 0.286D-05-0.231D-02-0.141D-02
 Coeff:      0.491D-03-0.148D-01-0.507D-02 0.721D-01 0.392D+00 0.558D+00
 Gap=     0.183 Goal=   None    Shift=    0.000
 RMSDP=2.73D-06 MaxDP=3.10D-04 DE=-1.67D-06 OVMax= 1.22D-04

 Cycle  13  Pass 1  IDiag  1:
 RMSU=  1.49D-06    CP:  8.77D-01  2.13D+00  1.31D-01  6.54D-01  9.26D-01
                    CP:  4.68D-01  6.22D-01  7.07D-01  7.54D-01  7.61D-01
                    CP:  9.10D-01  7.86D-01
 E= -2483.04818503082     Delta-E=       -0.000000486916 Rises=F Damp=F
 DIIS: error= 1.70D-05 at cycle  13 NSaved=  13.
 NSaved=13 IEnMin=13 EnMin= -2483.04818503082     IErMin=13 ErrMin= 1.70D-05
 ErrMax= 1.70D-05  0.00D+00 EMaxC= 1.00D-01 BMatC= 1.88D-07 BMatP= 9.41D-07
 IDIUse=1 WtCom= 1.00D+00 WtEn= 0.00D+00
 Coeff-Com: -0.256D-03 0.368D-03 0.103D-04 0.722D-05 0.451D-05-0.162D-03
 Coeff-Com: -0.543D-03-0.126D-01-0.237D-01-0.218D-01 0.260D-01 0.177D+00
 Coeff-Com:  0.855D+00
 Coeff:     -0.256D-03 0.368D-03 0.103D-04 0.722D-05 0.451D-05-0.162D-03
 Coeff:     -0.543D-03-0.126D-01-0.237D-01-0.218D-01 0.260D-01 0.177D+00
 Coeff:      0.855D+00
 Gap=     0.183 Goal=   None    Shift=    0.000
 RMSDP=2.50D-06 MaxDP=3.13D-04 DE=-4.87D-07 OVMax= 9.74D-05

 Cycle  14  Pass 1  IDiag  1:
 RMSU=  8.33D-07    CP:  8.77D-01  2.13D+00  1.31D-01  6.54D-01  9.26D-01
                    CP:  4.68D-01  6.23D-01  7.07D-01  7.52D-01  7.89D-01
                    CP:  9.64D-01  8.31D-01  1.05D+00
 E= -2483.04818514965     Delta-E=       -0.000000118837 Rises=F Damp=F
 DIIS: error= 2.73D-06 at cycle  14 NSaved=  14.
 NSaved=14 IEnMin=14 EnMin= -2483.04818514965     IErMin=14 ErrMin= 2.73D-06
 ErrMax= 2.73D-06  0.00D+00 EMaxC= 1.00D-01 BMatC= 5.59D-09 BMatP= 1.88D-07
 IDIUse=1 WtCom= 1.00D+00 WtEn= 0.00D+00
 Coeff-Com:  0.531D-04-0.464D-04 0.939D-05 0.571D-06 0.277D-03-0.371D-04
 Coeff-Com:  0.247D-03-0.313D-02-0.793D-02-0.128D-01-0.253D-01 0.116D-01
 Coeff-Com:  0.402D+00 0.635D+00
 Coeff:      0.531D-04-0.464D-04 0.939D-05 0.571D-06 0.277D-03-0.371D-04
 Coeff:      0.247D-03-0.313D-02-0.793D-02-0.128D-01-0.253D-01 0.116D-01
 Coeff:      0.402D+00 0.635D+00
 Gap=     0.183 Goal=   None    Shift=    0.000
 RMSDP=4.58D-07 MaxDP=5.70D-05 DE=-1.19D-07 OVMax= 3.19D-05

 Cycle  15  Pass 1  IDiag  1:
 RMSU=  2.72D-07    CP:  8.77D-01  2.13D+00  1.31D-01  6.54D-01  9.26D-01
                    CP:  4.68D-01  6.23D-01  7.07D-01  7.53D-01  7.90D-01
                    CP:  9.61D-01  8.39D-01  1.12D+00  9.76D-01
 E= -2483.04818515605     Delta-E=       -0.000000006400 Rises=F Damp=F
 DIIS: error= 1.94D-06 at cycle  15 NSaved=  15.
 NSaved=15 IEnMin=15 EnMin= -2483.04818515605     IErMin=15 ErrMin= 1.94D-06
 ErrMax= 1.94D-06  0.00D+00 EMaxC= 1.00D-01 BMatC= 1.83D-09 BMatP= 5.59D-09
 IDIUse=1 WtCom= 1.00D+00 WtEn= 0.00D+00
 Coeff-Com:  0.903D-04-0.102D-03-0.245D-05-0.815D-08 0.166D-03 0.599D-04
 Coeff-Com:  0.793D-04 0.538D-03-0.196D-03-0.273D-02-0.166D-01-0.179D-01
 Coeff-Com:  0.555D-01 0.245D+00 0.736D+00
 Coeff:      0.903D-04-0.102D-03-0.245D-05-0.815D-08 0.166D-03 0.599D-04
 Coeff:      0.793D-04 0.538D-03-0.196D-03-0.273D-02-0.166D-01-0.179D-01
 Coeff:      0.555D-01 0.245D+00 0.736D+00
 Gap=     0.183 Goal=   None    Shift=    0.000
 RMSDP=2.44D-07 MaxDP=3.37D-05 DE=-6.40D-09 OVMax= 1.88D-05

 Cycle  16  Pass 1  IDiag  1:
 RMSU=  1.24D-07    CP:  8.77D-01  2.13D+00  1.31D-01  6.54D-01  9.26D-01
                    CP:  4.68D-01  6.23D-01  7.07D-01  7.53D-01  7.90D-01
                    CP:  9.62D-01  8.56D-01  1.14D+00  1.07D+00  1.16D+00
 E= -2483.04818515905     Delta-E=       -0.000000003001 Rises=F Damp=F
 DIIS: error= 1.26D-06 at cycle  16 NSaved=  16.
 NSaved=16 IEnMin=16 EnMin= -2483.04818515905     IErMin=16 ErrMin= 1.26D-06
 ErrMax= 1.26D-06  0.00D+00 EMaxC= 1.00D-01 BMatC= 4.44D-10 BMatP= 1.83D-09
 IDIUse=1 WtCom= 1.00D+00 WtEn= 0.00D+00
 Coeff-Com:  0.338D-04-0.427D-04-0.655D-06-0.275D-07-0.487D-04 0.321D-04
 Coeff-Com: -0.102D-03 0.601D-03 0.124D-02 0.131D-02-0.696D-03-0.141D-02
 Coeff-Com: -0.663D-01-0.116D+00 0.236D+00 0.945D+00
 Coeff:      0.338D-04-0.427D-04-0.655D-06-0.275D-07-0.487D-04 0.321D-04
 Coeff:     -0.102D-03 0.601D-03 0.124D-02 0.131D-02-0.696D-03-0.141D-02
 Coeff:     -0.663D-01-0.116D+00 0.236D+00 0.945D+00
 Gap=     0.183 Goal=   None    Shift=    0.000
 RMSDP=1.85D-07 MaxDP=3.94D-05 DE=-3.00D-09 OVMax= 2.01D-05

 Cycle  17  Pass 1  IDiag  1:
 RMSU=  8.00D-08    CP:  8.77D-01  2.13D+00  1.31D-01  6.54D-01  9.26D-01
                    CP:  4.68D-01  6.23D-01  7.07D-01  7.53D-01  7.91D-01
                    CP:  9.63D-01  8.61D-01  1.17D+00  1.12D+00  1.48D+00
                    CP:  1.41D+00
 E= -2483.04818516041     Delta-E=       -0.000000001360 Rises=F Damp=F
 DIIS: error= 6.44D-07 at cycle  17 NSaved=  17.
 NSaved=17 IEnMin=17 EnMin= -2483.04818516041     IErMin=17 ErrMin= 6.44D-07
 ErrMax= 6.44D-07  0.00D+00 EMaxC= 1.00D-01 BMatC= 1.55D-10 BMatP= 4.44D-10
 IDIUse=1 WtCom= 1.00D+00 WtEn= 0.00D+00
 Coeff-Com: -0.974D-05 0.976D-05-0.253D-06 0.449D-06-0.629D-04-0.122D-05
 Coeff-Com: -0.101D-03 0.822D-04 0.485D-03 0.108D-02 0.463D-02 0.745D-02
 Coeff-Com: -0.422D-01-0.134D+00-0.212D+00 0.355D+00 0.102D+01
 Coeff:     -0.974D-05 0.976D-05-0.253D-06 0.449D-06-0.629D-04-0.122D-05
 Coeff:     -0.101D-03 0.822D-04 0.485D-03 0.108D-02 0.463D-02 0.745D-02
 Coeff:     -0.422D-01-0.134D+00-0.212D+00 0.355D+00 0.102D+01
 Gap=     0.183 Goal=   None    Shift=    0.000
 RMSDP=1.55D-07 MaxDP=4.03D-05 DE=-1.36D-09 OVMax= 1.55D-05

 Cycle  18  Pass 1  IDiag  1:
 RMSU=  3.68D-08    CP:  8.77D-01  2.13D+00  1.31D-01  6.54D-01  9.26D-01
                    CP:  4.68D-01  6.23D-01  7.07D-01  7.52D-01  7.92D-01
                    CP:  9.65D-01  8.67D-01  1.18D+00  1.17D+00  1.71D+00
                    CP:  1.90D+00  1.43D+00
 E= -2483.04818516095     Delta-E=       -0.000000000535 Rises=F Damp=F
 DIIS: error= 2.13D-07 at cycle  18 NSaved=  18.
 NSaved=18 IEnMin=18 EnMin= -2483.04818516095     IErMin=18 ErrMin= 2.13D-07
 ErrMax= 2.13D-07  0.00D+00 EMaxC= 1.00D-01 BMatC= 2.08D-11 BMatP= 1.55D-10
 IDIUse=1 WtCom= 1.00D+00 WtEn= 0.00D+00
 Coeff-Com: -0.124D-04 0.139D-04 0.232D-06 0.343D-07-0.167D-04-0.959D-05
 Coeff-Com: -0.127D-04-0.196D-04 0.105D-03 0.345D-03 0.220D-02 0.258D-02
 Coeff-Com: -0.105D-01-0.293D-01-0.134D+00-0.179D-01 0.444D+00 0.742D+00
 Coeff:     -0.124D-04 0.139D-04 0.232D-06 0.343D-07-0.167D-04-0.959D-05
 Coeff:     -0.127D-04-0.196D-04 0.105D-03 0.345D-03 0.220D-02 0.258D-02
 Coeff:     -0.105D-01-0.293D-01-0.134D+00-0.179D-01 0.444D+00 0.742D+00
 Gap=     0.183 Goal=   None    Shift=    0.000
 RMSDP=4.21D-08 MaxDP=7.82D-06 DE=-5.35D-10 OVMax= 4.58D-06

 Cycle  19  Pass 1  IDiag  1:
 RMSU=  1.60D-08    CP:  8.77D-01  2.13D+00  1.31D-01  6.54D-01  9.26D-01
                    CP:  4.68D-01  6.23D-01  7.07D-01  7.52D-01  7.92D-01
                    CP:  9.65D-01  8.69D-01  1.18D+00  1.19D+00  1.77D+00
                    CP:  2.04D+00  1.59D+00  9.30D-01
 E= -2483.04818516095     Delta-E=       -0.000000000004 Rises=F Damp=F
 DIIS: error= 1.65D-07 at cycle  19 NSaved=  19.
 NSaved=19 IEnMin=19 EnMin= -2483.04818516095     IErMin=19 ErrMin= 1.65D-07
 ErrMax= 1.65D-07  0.00D+00 EMaxC= 1.00D-01 BMatC= 1.72D-11 BMatP= 2.08D-11
 IDIUse=1 WtCom= 1.00D+00 WtEn= 0.00D+00
 Coeff-Com: -0.320D-05 0.379D-05-0.604D-07-0.565D-07 0.338D-05-0.265D-05
 Coeff-Com:  0.144D-04 0.154D-05 0.236D-04-0.884D-06-0.350D-03-0.162D-02
 Coeff-Com:  0.482D-04 0.162D-01 0.102D-01-0.474D-01-0.578D-01 0.160D+00
 Coeff-Com:  0.921D+00
 Coeff:     -0.320D-05 0.379D-05-0.604D-07-0.565D-07 0.338D-05-0.265D-05
 Coeff:      0.144D-04 0.154D-05 0.236D-04-0.884D-06-0.350D-03-0.162D-02
 Coeff:      0.482D-04 0.162D-01 0.102D-01-0.474D-01-0.578D-01 0.160D+00
 Coeff:      0.921D+00
 Gap=     0.183 Goal=   None    Shift=    0.000
 RMSDP=1.96D-08 MaxDP=2.08D-06 DE=-3.64D-12 OVMax= 1.41D-06

 Cycle  20  Pass 1  IDiag  1:
 RMSU=  6.11D-09    CP:  8.77D-01  2.13D+00  1.31D-01  6.54D-01  9.26D-01
                    CP:  4.68D-01  6.23D-01  7.07D-01  7.52D-01  7.92D-01
                    CP:  9.65D-01  8.69D-01  1.18D+00  1.19D+00  1.78D+00
                    CP:  2.06D+00  1.64D+00  1.01D+00  1.06D+00
 E= -2483.04818516097     Delta-E=       -0.000000000017 Rises=F Damp=F
 DIIS: error= 2.91D-08 at cycle  20 NSaved=  20.
 NSaved=20 IEnMin=20 EnMin= -2483.04818516097     IErMin=20 ErrMin= 2.91D-08
 ErrMax= 2.91D-08  0.00D+00 EMaxC= 1.00D-01 BMatC= 6.48D-13 BMatP= 1.72D-11
 IDIUse=1 WtCom= 1.00D+00 WtEn= 0.00D+00
 Coeff-Com: -0.429D-06 0.443D-06-0.137D-07-0.490D-07 0.158D-05-0.729D-06
 Coeff-Com:  0.963D-05 0.122D-04 0.238D-04 0.325D-04-0.287D-03-0.104D-02
 Coeff-Com:  0.368D-03 0.928D-02 0.241D-01-0.116D-01-0.894D-01-0.554D-01
 Coeff-Com:  0.361D+00 0.763D+00
 Coeff:     -0.429D-06 0.443D-06-0.137D-07-0.490D-07 0.158D-05-0.729D-06
 Coeff:      0.963D-05 0.122D-04 0.238D-04 0.325D-04-0.287D-03-0.104D-02
 Coeff:      0.368D-03 0.928D-02 0.241D-01-0.116D-01-0.894D-01-0.554D-01
 Coeff:      0.361D+00 0.763D+00
 Gap=     0.183 Goal=   None    Shift=    0.000
 RMSDP=9.84D-09 MaxDP=1.32D-06 DE=-1.73D-11 OVMax= 4.64D-07

 Cycle  21  Pass 1  IDiag  1:
 Restarting incremental Fock formation.
 E= -2483.04818516100     Delta-E=       -0.000000000029 Rises=F Damp=F
 DIIS: error= 1.03D-08 at cycle  21 NSaved=  20.
 NSaved=20 IEnMin=20 EnMin= -2483.04818516100     IErMin=20 ErrMin= 1.03D-08
 ErrMax= 1.03D-08  0.00D+00 EMaxC= 1.00D-01 BMatC= 6.97D-14 BMatP= 6.48D-13
 IDIUse=1 WtCom= 1.00D+00 WtEn= 0.00D+00
 Coeff-Com:  0.920D-07-0.154D-06-0.123D-07 0.659D-07-0.856D-07 0.218D-05
 Coeff-Com:  0.709D-05 0.963D-05 0.332D-04-0.542D-05-0.165D-03-0.163D-04
 Coeff-Com:  0.124D-02 0.747D-02 0.156D-02-0.267D-01-0.406D-01 0.295D-01
 Coeff-Com:  0.336D+00 0.692D+00
 Coeff:      0.920D-07-0.154D-06-0.123D-07 0.659D-07-0.856D-07 0.218D-05
 Coeff:      0.709D-05 0.963D-05 0.332D-04-0.542D-05-0.165D-03-0.163D-04
 Coeff:      0.124D-02 0.747D-02 0.156D-02-0.267D-01-0.406D-01 0.295D-01
 Coeff:      0.336D+00 0.692D+00
 Gap=     0.183 Goal=   None    Shift=    0.000
 RMSDP=2.19D-09 MaxDP=3.66D-07 DE=-2.86D-11 OVMax= 1.20D-07

 Error on total polarization charges =  0.02084
 SCF Done:  E(RB3LYP) =  -2483.04818516     A.U. after   21 cycles
            NFock= 21  Conv=0.22D-08     -V/T= 2.0021
 KE= 2.477749761077D+03 PE=-1.092890479720D+04 EE= 3.453717739259D+03
 Leave Link  502 at Thu Nov 13 12:28:06 2025, MaxMem=  5368709120 cpu:            1674.9 elap:             105.4
 (Enter /afs/ics.muni.cz/software/g16-C.01/avx2/g16/l508.exe)
 QCSCF skips out because SCF is already converged.
 Leave Link  508 at Thu Nov 13 12:28:10 2025, MaxMem=  5368709120 cpu:               0.0 elap:               0.1
 (Enter /afs/ics.muni.cz/software/g16-C.01/avx2/g16/l601.exe)
 Copying SCF densities to generalized density rwf, IOpCl= 0 IROHF=0.

 **********************************************************************

            Population analysis using the SCF Density.

 **********************************************************************

 Orbital symmetries:
       Occupied  (A) (A) (B) (A) (B) (A) (B) (B) (A) (A) (B) (B)
                 (A) (B) (A) (B) (A) (A) (B) (A) (B) (A) (B) (B)
                 (A) (A) (B) (A) (B) (A) (B) (A) (B) (A) (B) (A)
                 (B) (A) (B) (A) (B) (A) (B) (A) (B) (A) (B) (A)
                 (B) (A) (A) (B) (A) (B) (B) (A) (B) (A) (B) (B)
                 (A) (B) (A) (A) (A) (B) (B) (B) (A) (A) (A) (B)
                 (B) (A) (A) (B) (A) (A) (B) (B) (A) (B) (A) (A)
                 (B) (B) (A) (A) (B)
       Virtual   (A) (B) (A) (B) (A) (B) (A) (B) (A) (B) (A) (B)
                 (A) (A) (B) (A) (B) (A) (B) (B) (A) (B) (A) (A)
                 (B) (A) (B) (A) (B) (B) (A) (A) (A) (B) (B) (A)
                 (B) (A) (B) (A) (B) (B) (A) (A) (B) (B) (A) (A)
                 (B) (B) (A) (A) (B) (A) (B) (B) (B) (A) (A) (B)
                 (A) (B) (A) (A) (B) (A) (A) (B) (B) (A) (B) (A)
                 (B) (A) (B) (B) (B) (A) (B) (A) (A) (B) (B) (A)
                 (B) (A) (A) (B) (A) (A) (B) (A) (B) (A) (B) (A)
                 (B) (A) (B) (B) (A) (B) (B) (A) (A) (A) (B) (B)
                 (A) (A) (A) (B) (A) (B) (B) (A) (B) (A) (B) (A)
                 (B) (A) (B) (A) (B) (B) (A) (B) (A) (B) (A) (B)
                 (A) (B) (A) (B) (B) (A) (A) (B) (A) (B) (A) (B)
                 (A) (B) (A) (A) (B) (A) (A) (B) (B) (A) (B) (A)
                 (B) (A) (B) (A) (B) (A) (B) (B) (A) (B) (A) (B)
                 (A) (B) (A) (B) (B) (A) (A) (A) (B) (A) (B) (A)
                 (B) (A) (B) (B) (A) (B) (A) (A) (A) (B) (A) (B)
                 (B) (A) (B) (A) (A) (B) (B) (A) (B) (B) (A) (B)
                 (A) (A) (B) (A) (B) (B) (A) (A) (B) (A) (B) (B)
                 (A) (B) (A) (A) (B) (B) (A) (B) (A) (B) (A) (B)
                 (A) (B) (A) (A) (B) (A) (B) (A) (B) (B) (A) (B)
                 (A) (B) (B) (A) (A) (A) (B) (A) (A) (B) (B) (B)
                 (A) (A) (B) (B) (A) (A) (B) (A) (A) (B) (B) (A)
                 (A) (B) (B) (B) (A) (B) (A) (A) (B) (B) (B) (A)
                 (B) (A) (A) (A) (B) (A) (B) (B) (A) (B) (A) (A)
                 (A) (B) (B) (A) (B) (A) (A) (B) (B) (B) (A) (A)
                 (A) (B) (B) (A) (B) (B) (A) (A) (B) (A) (B) (A)
                 (A) (A) (B) (B) (A) (B) (B) (B) (A) (A) (B) (A)
                 (B) (A) (B) (A) (B) (B) (A) (A) (B) (A) (A) (B)
                 (B) (A) (B) (B) (A) (B) (A) (A) (B) (B) (A) (A)
                 (B) (B) (A) (B) (B) (A) (A) (B) (A) (B) (A) (A)
                 (B) (A) (B) (A) (B) (B) (A) (B) (A) (B) (B) (A)
                 (A) (B) (A) (B) (A) (B) (A) (A) (B) (A) (B) (A)
                 (B) (B) (A) (B) (A) (A) (B) (B) (A) (A) (B) (A)
                 (B) (A) (B) (A) (A) (B) (B) (A) (B) (A) (B) (A)
                 (B) (A) (B) (A) (B) (A) (B) (B) (A) (B) (A) (A)
                 (B) (B) (A) (B) (A) (B) (A) (A) (B) (A) (B) (A)
                 (B) (A) (B) (A) (B) (A) (B) (A) (B) (A) (B) (B)
                 (B) (A) (A) (A) (B) (B) (A) (B) (A) (A) (B) (A)
                 (A) (B) (B) (B) (A) (A) (B) (A) (B) (A) (B) (B)
                 (A) (B) (A) (B) (B) (A) (A) (B) (A) (A) (B) (A)
                 (B) (A) (B) (B) (A) (B) (A) (B) (A) (B) (A) (A)
                 (A)
 The electronic state is 1-A.
 Alpha  occ. eigenvalues -- -277.56355 -32.87775 -28.53888 -28.53673 -28.53567
 Alpha  occ. eigenvalues --  -19.12936 -19.12936 -19.11723 -19.11723 -19.10416
 Alpha  occ. eigenvalues --  -19.10415 -19.08901 -19.08901 -14.38769 -14.38769
[...]
     1  Co  37.111019  -0.024271  -0.024271   0.040150   0.040150  -0.254147
     2  O   -0.024271   8.183174  -0.000004  -0.001044  -0.000036  -0.003208
     3  O   -0.024271  -0.000004   8.183174  -0.000036  -0.001044   0.000102
     4  O    0.040150  -0.001044  -0.000036   8.265613  -0.000135  -0.111203
     5  O    0.040150  -0.000036  -0.001044  -0.000135   8.265613  -0.000853
     6  O   -0.254147  -0.003208   0.000102  -0.111203  -0.000853   8.374701
     7  O   -0.254147   0.000102  -0.003208  -0.000853  -0.111203  -0.012817
     8  O   -0.166374   0.000054  -0.096227   0.000673  -0.001891  -0.034950
     9  O   -0.166374  -0.096227   0.000054  -0.001891   0.000673   0.021449
    10  N   -2.215707  -0.023871   0.009111  -0.035136   0.001611   0.075414
    11  N   -2.215707   0.009111  -0.023871   0.001611  -0.035136   0.076357
    12  C   -1.432392   0.322070   0.001509   0.000702   0.004862   0.055760
    13  C   -1.432392   0.001509   0.322070   0.004862   0.000702   0.000419
    14  C   -1.033137   0.021609   0.000709   0.415197   0.003512   0.270165
    15  C   -1.033137   0.000709   0.021609   0.003512   0.415197  -0.004680
    16  C   -0.095070   0.145198  -0.003912   0.042869  -0.003045  -0.040203
    17  C   -0.095070  -0.003912   0.145198  -0.003045   0.042869   0.022680
    18  H   -0.018427  -0.000023   0.003850   0.000054  -0.003839  -0.000288
    19  H   -0.018427   0.003850  -0.000023  -0.003839   0.000054   0.002667
    20  H    0.010993   0.003213   0.000325  -0.000085  -0.000060  -0.000902
    21  H    0.010993   0.000325   0.003213  -0.000060  -0.000085  -0.000402
    22  H   -0.033571  -0.012839  -0.000433   0.000069   0.000275  -0.000248
    23  H   -0.033571  -0.000433  -0.012839   0.000275   0.000069   0.000315
    24  C   -0.133340   0.004840   0.004433  -0.003115  -0.000179   0.001452
    25  C   -0.133340   0.004433   0.004840  -0.000179  -0.003115   0.002770
    26  H    0.036197  -0.000065  -0.001572  -0.000017  -0.018775  -0.000136
    27  H    0.036197  -0.001572  -0.000065  -0.018775  -0.000017   0.007319
    28  C    1.029269  -0.123833   0.000759  -0.157862   0.000583  -0.132082
    29  C    1.029269   0.000759  -0.123833   0.000583  -0.157862  -0.004931
    30  H   -0.007707  -0.000063   0.001094  -0.000053   0.001440   0.000519
    31  H   -0.007707   0.001094  -0.000063   0.001440  -0.000053  -0.003968
    32  H   -0.085035  -0.000372   0.001722   0.001853   0.000424  -0.010710
    33  H   -0.085035   0.001722  -0.000372   0.000424   0.001853  -0.000216
               7          8          9         10         11         12
     1  Co  -0.254147  -0.166374  -0.166374  -2.215707  -2.215707  -1.432392
     2  O    0.000102   0.000054  -0.096227  -0.023871   0.009111   0.322070
     3  O   -0.003208  -0.096227   0.000054   0.009111  -0.023871   0.001509
     4  O   -0.000853   0.000673  -0.001891  -0.035136   0.001611   0.000702
     5  O   -0.111203  -0.001891   0.000673   0.001611  -0.035136   0.004862
     6  O   -0.012817  -0.034950   0.021449   0.075414   0.076357   0.055760
     7  O    8.374701   0.021449  -0.034950   0.076357   0.075414   0.000419
     8  O    0.021449   8.189417   0.026232  -0.018052   0.018043  -0.008057
     9  O   -0.034950   0.026232   8.189417   0.018043  -0.018052   0.422164
    10  N    0.076357  -0.018052   0.018043   9.561650  -0.169412   1.174338
    11  N    0.075414   0.018043  -0.018052  -0.169412   9.561650  -0.049243
    12  C    0.000419  -0.008057   0.422164   1.174338  -0.049243   7.295948
    13  C    0.055760   0.422164  -0.008057  -0.049243   1.174338  -0.149787
    14  C   -0.004680   0.042285   0.059555   0.268224   0.003176   0.031457
    15  C    0.270165   0.059555   0.042285   0.003176   0.268224   0.066522
    16  C    0.022680   0.102605  -0.310665  -2.240527   0.402683  -2.104758
    17  C   -0.040203  -0.310665   0.102605   0.402683  -2.240527   0.395955
    18  H    0.002667   0.003593   0.000273  -0.000775   0.022708   0.001565
    19  H   -0.000288   0.000273   0.003593   0.022708  -0.000775   0.013284
    20  H   -0.000402   0.003113   0.002493  -0.093650   0.033584  -0.023110
    21  H   -0.000902   0.002493   0.003113   0.033584  -0.093650   0.016520
    22  H    0.000315  -0.004047  -0.006303  -0.019042   0.002287   0.001452
    23  H   -0.000248  -0.006303  -0.004047   0.002287  -0.019042  -0.006445
    24  C    0.002770  -0.011290   0.064816  -0.052040   0.073353  -0.211807
    25  C    0.001452   0.064816  -0.011290   0.073353  -0.052040   0.195506
    26  H    0.007319  -0.003771  -0.004170  -0.000176   0.001990  -0.003809
    27  H   -0.000136  -0.004170  -0.003771   0.001990  -0.000176  -0.008137
    28  C   -0.004931  -0.045582   0.009614   0.005247  -0.096107   0.004257
    29  C   -0.132082   0.009614  -0.045582  -0.096107   0.005247  -0.100603
    30  H   -0.003968  -0.000706   0.004040   0.016072  -0.172728   0.011292
    31  H    0.000519   0.004040  -0.000706  -0.172728   0.016072  -0.149049
    32  H   -0.000216  -0.001427  -0.002804   0.254874  -0.012196  -0.023390
    33  H   -0.010710  -0.002804  -0.001427  -0.012196   0.254874  -0.009401
              13         14         15         16         17         18
     1  Co  -1.432392  -1.033137  -1.033137  -0.095070  -0.095070  -0.018427
     2  O    0.001509   0.021609   0.000709   0.145198  -0.003912  -0.000023
     3  O    0.322070   0.000709   0.021609  -0.003912   0.145198   0.003850
     4  O    0.004862   0.415197   0.003512   0.042869  -0.003045   0.000054
     5  O    0.000702   0.003512   0.415197  -0.003045   0.042869  -0.003839
     6  O    0.000419   0.270165  -0.004680  -0.040203   0.022680  -0.000288
     7  O    0.055760  -0.004680   0.270165   0.022680  -0.040203   0.002667
     8  O    0.422164   0.042285   0.059555   0.102605  -0.310665   0.003593
     9  O   -0.008057   0.059555   0.042285  -0.310665   0.102605   0.000273
    10  N   -0.049243   0.268224   0.003176  -2.240527   0.402683  -0.000775
    11  N    1.174338   0.003176   0.268224   0.402683  -2.240527   0.022708
    12  C   -0.149787   0.031457   0.066522  -2.104758   0.395955   0.001565
    13  C    7.295948   0.066522   0.031457   0.395955  -2.104758   0.013284
    14  C    0.066522   5.947226   0.000175   0.314239  -0.044317  -0.000761
    15  C    0.031457   0.000175   5.947226  -0.044317   0.314239  -0.015659
    16  C    0.395955   0.314239  -0.044317  12.285448  -0.689008   0.000211
    17  C   -2.104758  -0.044317   0.314239  -0.689008  12.285448  -0.097671
    18  H    0.013284  -0.000761  -0.015659   0.000211  -0.097671   0.450028
    19  H    0.001565  -0.015659  -0.000761  -0.097671   0.000211   0.000027
    20  H    0.016520   0.000110   0.001544   0.008034  -0.031278  -0.000254
    21  H   -0.023110   0.001544   0.000110  -0.031278   0.008034   0.000126
    22  H   -0.006445  -0.014531  -0.000457   0.039639   0.031884   0.000585
    23  H    0.001452  -0.000457  -0.014531   0.031884   0.039639   0.000222
    24  C    0.195506  -0.085963   0.089573   0.025974  -0.273216   0.001253
    25  C   -0.211807   0.089573  -0.085963  -0.273216   0.025974  -0.000966
    26  H   -0.008137   0.000955  -0.087461   0.002799  -0.075273  -0.011481
    27  H   -0.003809  -0.087461   0.000955  -0.075273   0.002799  -0.000033
    28  C   -0.100603  -0.679356   0.006612  -2.778971   0.117358   0.000264
    29  C    0.004257   0.006612  -0.679356   0.117358  -2.778971   0.424062
    30  H   -0.149049   0.000930  -0.007930  -0.017874   0.579574  -0.007481
    31  H    0.011292  -0.007930   0.000930   0.579574  -0.017874   0.000033
    32  H   -0.009401   0.012761  -0.012640   0.163839  -0.009712  -0.000030
    33  H   -0.023390  -0.012640   0.012761  -0.009712   0.163839   0.000000
              19         20         21         22         23         24
     1  Co  -0.018427   0.010993   0.010993  -0.033571  -0.033571  -0.133340
     2  O    0.003850   0.003213   0.000325  -0.012839  -0.000433   0.004840
     3  O   -0.000023   0.000325   0.003213  -0.000433  -0.012839   0.004433
     4  O   -0.003839  -0.000085  -0.000060   0.000069   0.000275  -0.003115
     5  O    0.000054  -0.000060  -0.000085   0.000275   0.000069  -0.000179
     6  O    0.002667  -0.000902  -0.000402  -0.000248   0.000315   0.001452
     7  O   -0.000288  -0.000402  -0.000902   0.000315  -0.000248   0.002770
     8  O    0.000273   0.003113   0.002493  -0.004047  -0.006303  -0.011290
     9  O    0.003593   0.002493   0.003113  -0.006303  -0.004047   0.064816
    10  N    0.022708  -0.093650   0.033584  -0.019042   0.002287  -0.052040
    11  N   -0.000775   0.033584  -0.093650   0.002287  -0.019042   0.073353
    12  C    0.013284  -0.023110   0.016520   0.001452  -0.006445  -0.211807
    13  C    0.001565   0.016520  -0.023110  -0.006445   0.001452   0.195506
    14  C   -0.015659   0.000110   0.001544  -0.014531  -0.000457  -0.085963
    15  C   -0.000761   0.001544   0.000110  -0.000457  -0.014531   0.089573
    16  C   -0.097671   0.008034  -0.031278   0.039639   0.031884   0.025974
    17  C    0.000211  -0.031278   0.008034   0.031884   0.039639  -0.273216
    18  H    0.000027  -0.000254   0.000126   0.000585   0.000222   0.001253
    19  H    0.450028   0.000126  -0.000254   0.000222   0.000585  -0.000966
    20  H    0.000126   0.447902  -0.000326  -0.012337  -0.012986   0.439937
    21  H   -0.000254  -0.000326   0.447902  -0.012986  -0.012337  -0.050495
    22  H    0.000222  -0.012337  -0.012986   0.467854   0.008888   0.423269
    23  H    0.000585  -0.012986  -0.012337   0.008888   0.467854  -0.098477
    24  C   -0.000966   0.439937  -0.050495   0.423269  -0.098477   6.973555
    25  C    0.001253  -0.050495   0.439937  -0.098477   0.423269  -1.075197
    26  H   -0.000033  -0.000239  -0.000508   0.000051   0.001584  -0.005021
    27  H   -0.011481  -0.000508  -0.000239   0.001584   0.000051   0.006985
    28  C    0.424062   0.014726   0.002045   0.012711   0.002353   0.033671
    29  C    0.000264   0.002045   0.014726   0.002353   0.012711  -0.084559
    30  H    0.000033  -0.000915   0.005018   0.000676  -0.001208  -0.019955
    31  H   -0.007481   0.005018  -0.000915  -0.001208   0.000676   0.022965
    32  H    0.000000   0.000327   0.003908  -0.004010   0.001850  -0.043881
    33  H   -0.000030   0.003908   0.000327   0.001850  -0.004010   0.037985
              25         26         27         28         29         30
     1  Co  -0.133340   0.036197   0.036197   1.029269   1.029269  -0.007707
     2  O    0.004433  -0.000065  -0.001572  -0.123833   0.000759  -0.000063
     3  O    0.004840  -0.001572  -0.000065   0.000759  -0.123833   0.001094
     4  O   -0.000179  -0.000017  -0.018775  -0.157862   0.000583  -0.000053
     5  O   -0.003115  -0.018775  -0.000017   0.000583  -0.157862   0.001440
     6  O    0.002770  -0.000136   0.007319  -0.132082  -0.004931   0.000519
     7  O    0.001452   0.007319  -0.000136  -0.004931  -0.132082  -0.003968
     8  O    0.064816  -0.003771  -0.004170  -0.045582   0.009614  -0.000706
     9  O   -0.011290  -0.004170  -0.003771   0.009614  -0.045582   0.004040
    10  N    0.073353  -0.000176   0.001990   0.005247  -0.096107   0.016072
    11  N   -0.052040   0.001990  -0.000176  -0.096107   0.005247  -0.172728
    12  C    0.195506  -0.003809  -0.008137   0.004257  -0.100603   0.011292
    13  C   -0.211807  -0.008137  -0.003809  -0.100603   0.004257  -0.149049
    14  C    0.089573   0.000955  -0.087461  -0.679356   0.006612   0.000930
    15  C   -0.085963  -0.087461   0.000955   0.006612  -0.679356  -0.007930
    16  C   -0.273216   0.002799  -0.075273  -2.778971   0.117358  -0.017874
    17  C    0.025974  -0.075273   0.002799   0.117358  -2.778971   0.579574
    18  H   -0.000966  -0.011481  -0.000033   0.000264   0.424062  -0.007481
    19  H    0.001253  -0.000033  -0.011481   0.424062   0.000264   0.000033
    20  H   -0.050495  -0.000239  -0.000508   0.014726   0.002045  -0.000915
    21  H    0.439937  -0.000508  -0.000239   0.002045   0.014726   0.005018
    22  H   -0.098477   0.000051   0.001584   0.012711   0.002353   0.000676
    23  H    0.423269   0.001584   0.000051   0.002353   0.012711  -0.001208
    24  C   -1.075197  -0.005021   0.006985   0.033671  -0.084559  -0.019955
    25  C    6.973555   0.006985  -0.005021  -0.084559   0.033671   0.022965
    26  H    0.006985   0.473466   0.000081   0.000005   0.474690  -0.009252
    27  H   -0.005021   0.000081   0.473466   0.474690   0.000005  -0.000041
    28  C   -0.084559   0.000005   0.474690   8.960323  -0.019366   0.000620
    29  C    0.033671   0.474690   0.000005  -0.019366   8.960323  -0.011395
    30  H    0.022965  -0.009252  -0.000041   0.000620  -0.011395   0.458157
    31  H   -0.019955  -0.000041  -0.009252  -0.011395   0.000620  -0.000458
    32  H    0.037985   0.000140  -0.008191  -0.042487   0.001065   0.000726
    33  H   -0.043881  -0.008191   0.000140   0.001065  -0.042487   0.007232
              31         32         33
     1  Co  -0.007707  -0.085035  -0.085035
     2  O    0.001094  -0.000372   0.001722
     3  O   -0.000063   0.001722  -0.000372
     4  O    0.001440   0.001853   0.000424
     5  O   -0.000053   0.000424   0.001853
     6  O   -0.003968  -0.010710  -0.000216
     7  O    0.000519  -0.000216  -0.010710
     8  O    0.004040  -0.001427  -0.002804
     9  O   -0.000706  -0.002804  -0.001427
    10  N   -0.172728   0.254874  -0.012196
    11  N    0.016072  -0.012196   0.254874
    12  C   -0.149049  -0.023390  -0.009401
    13  C    0.011292  -0.009401  -0.023390
    14  C   -0.007930   0.012761  -0.012640
    15  C    0.000930  -0.012640   0.012761
    16  C    0.579574   0.163839  -0.009712
    17  C   -0.017874  -0.009712   0.163839
    18  H    0.000033  -0.000030   0.000000
    19  H   -0.007481   0.000000  -0.000030
    20  H    0.005018   0.000327   0.003908
    21  H   -0.000915   0.003908   0.000327
    22  H   -0.001208  -0.004010   0.001850
    23  H    0.000676   0.001850  -0.004010
    24  C    0.022965  -0.043881   0.037985
    25  C   -0.019955   0.037985  -0.043881
    26  H   -0.000041   0.000140  -0.008191
    27  H   -0.009252  -0.008191   0.000140
    28  C   -0.011395  -0.042487   0.001065
    29  C    0.000620   0.001065  -0.042487
    30  H   -0.000458   0.000726   0.007232
    31  H    0.458157   0.007232   0.000726
    32  H    0.007232   0.380893   0.000191
    33  H    0.000726   0.000191   0.380893
 Mulliken charges:
               1
     1  Co  -1.345883
     2  O   -0.411996
     3  O   -0.411996
     4  O   -0.442558
     5  O   -0.442558
     6  O   -0.296141
     7  O   -0.296141
     8  O   -0.254102
     9  O   -0.254102
    10  N    0.197941
    11  N    0.197941
    12  C    0.264408
    13  C    0.264408
    14  C    0.430353
    15  C    0.430353
    16  C    0.134510
    17  C    0.134510
    18  H    0.232882
    19  H    0.232882
    20  H    0.233630
    21  H    0.233630
    22  H    0.230972
    23  H    0.230972
    24  C   -0.252835
    25  C   -0.252835
    26  H    0.231868
    27  H    0.231868
    28  C   -0.823099
    29  C   -0.823099
    30  H    0.300395
    31  H    0.300395
    32  H    0.396714
    33  H    0.396714
 Sum of Mulliken charges =  -1.00000
 Mulliken charges with hydrogens summed into heavy atoms:
               1
     1  Co  -1.345883
     2  O   -0.411996
     3  O   -0.411996
     4  O   -0.442558
     5  O   -0.442558
     6  O   -0.296141
     7  O   -0.296141
     8  O   -0.254102
     9  O   -0.254102
    10  N    0.594654
    11  N    0.594654
    12  C    0.264408
    13  C    0.264408
    14  C    0.430353
    15  C    0.430353
    16  C    0.434905
    17  C    0.434905
    24  C    0.211768
    25  C    0.211768
    28  C   -0.358349
    29  C   -0.358349
 Electronic spatial extent (au):  <R**2>=           5149.5505
 Charge=             -1.0000 electrons
 Dipole moment (field-independent basis, Debye):
    X=              0.0000    Y=             -0.0000    Z=            -23.3626  Tot=             23.3626
 Quadrupole moment (field-independent basis, Debye-Ang):
   XX=           -179.8103   YY=           -162.9490   ZZ=           -148.4346
   XY=            -19.3740   XZ=             -0.0000   YZ=              0.0000
 Traceless Quadrupole moment (field-independent basis, Debye-Ang):
   XX=            -16.0790   YY=              0.7823   ZZ=             15.2967
   XY=            -19.3740   XZ=             -0.0000   YZ=              0.0000
 Octapole moment (field-independent basis, Debye-Ang**2):
  XXX=              0.0000  YYY=             -0.0000  ZZZ=           -156.3842  XYY=              0.0000
  XXY=              0.0000  XXZ=            -12.1669  XZZ=             -0.0000  YZZ=              0.0000
  YYZ=           -144.2898  XYZ=             50.6714
 Hexadecapole moment (field-independent basis, Debye-Ang**3):
 XXXX=          -1946.2703 YYYY=          -3990.2751 ZZZZ=          -1747.0716 XXXY=           -679.8309
 XXXZ=             -0.0000 YYYX=           -371.1821 YYYZ=              0.0000 ZZZX=             -0.0000
 ZZZY=              0.0000 XXYY=          -1118.9248 XXZZ=           -523.4188 YYZZ=          -1179.4189
 XXYZ=              0.0000 YYXZ=             -0.0000 ZZXY=             -8.4170
 N-N= 2.514414595481D+03 E-N=-1.092895969949D+04  KE= 2.477749036247D+03
 Symmetry A    KE= 1.601315512350D+03
 Symmetry B    KE= 8.764335238971D+02
 No NMR shielding tensors so no spin-rotation constants.
 Leave Link  601 at Thu Nov 13 12:43:13 2025, MaxMem=  5368709120 cpu:               3.8 elap:               0.3
 (Enter /afs/ics.muni.cz/software/g16-C.01/avx2/g16/l9999.exe)

 Test job not archived.
 1\1\GINC-PCR1\FOpt\RB3LYP\6-311++G(d,p)\C10H12Co1N2O8(1-)\ZDRAHALJ\13-
 Nov-2025\0\\#p B3LYP/6-311++G** iop(2/11=1) scf(xqc) scrf=(cpcm,solven
 t=water) opt(verytight)\\CoO komplex, zakl. stav, frekvence\\-1,1\Co,0
 .,0.0518181311,0.\O,3.193383658,-0.3647503732,2.2177244539\O,-3.193383
 658,-0.3647503732,-2.2177244539\O,2.8720169808,2.3902224281,-1.6877070
 879\O,-2.8720169808,2.3902224281,1.6877070879\O,1.0891769385,1.4451080
 981,-0.7716033924\O,-1.0891769385,1.4451080981,0.7716033924\O,-1.07617
 16997,0.0049189161,-1.5899980278\O,1.0761716997,0.0049189161,1.5899980
 278\N,1.2247011503,-1.3559881382,-0.5717482206\N,-1.2247011503,-1.3559
 881382,0.5717482206\C,2.2920126033,-0.3970976003,1.3868010553\C,-2.292
 0126033,-0.3970976003,-1.3868010553\C,2.3235827885,1.4252522794,-1.144
 2771342\C,-2.3235827885,1.4252522794,1.1442771342\C,2.5474729498,-0.92
 62058241,-0.0398953959\C,-2.5474729498,-0.9262058241,0.0398953959\H,-4
 .1230458544,0.452864256,0.5187206924\H,4.1230458544,0.452864256,-0.518
 7206924\H,1.1622557193,-3.4939378931,-0.5709780884\H,-1.1622557193,-3.
 4939378931,0.5709780884\H,1.1367542113,-2.728735202,1.0209653276\H,-1.
 1367542113,-2.728735202,-1.0209653276\C,0.7581531222,-2.656876367,0.00
 09796219\C,-0.7581531222,-2.656876367,-0.0009796219\H,-3.3694826438,-0
 .2647687283,1.922570486\H,3.3694826438,-0.2647687283,-1.922570486\C,3.
 1584043942,0.1546695875,-0.9329397104\C,-3.1584043942,0.1546695875,0.9
 329397104\H,-3.2302061949,-1.7778436984,-0.0112818626\H,3.2302061949,-
 1.7778436984,0.0112818626\H,1.2476900965,-1.4172977859,-1.5885623172\H
 ,-1.2476900965,-1.4172977859,1.5885623172\\Version=ES64L-G16RevC.01\St
 ate=1-A\HF=-2483.0481894\RMSD=4.623e-09\RMSF=2.599e-06\Dipole=0.,-9.19
 15505,0.\Quadrupole=-8.2509832,11.372751,-3.1217678,0.,-15.4980316,0.\
 PG=C02 [C2(Co1),X(C10H12N2O8)]\\@


 LAW OF COMPENSATION:
      NO CALCULATION IS EVER A COMPLETE FAILURE; IT 
      CAN ALWAYS SERVE AS A BAD EXAMPLE.

                                           -- ANON
 Job cpu time:       0 days  4 hours 22 minutes 40.2 seconds.
 Elapsed time:       0 days  0 hours 16 minutes 37.1 seconds.
 File lengths (MBytes):  RWF=    258 Int=      0 D2E=      0 Chk=     28 Scr=      1
 Normal termination of Gaussian 16 at Thu Nov 13 12:43:17 2025.
