 Entering Gaussian System, Link 0=gdv
 Input=co_rroa_530nm.com
 Output=co_rroa_530nm.log
 Initial command:
 /mf/cheese/Gaussian/gdvj25p/gdv/l1.exe "/clxxx07/s0/scratch/Gau-27420.inp" -scrdir="/clxxx07/s0/scratch/" -exedir="/mf/cheese/projects/petr_EDDS/co/b3lyp_6311pp2dp_gd3bj/exe-dir:/mf/cheese/Gaussian/gdvj25p/gdv/bsd:/mf/cheese/Gaussian/gdvj25p/gdv/local:/mf/cheese/Gaussian/gdvj25p/gdv/extras:/mf/cheese/Gaussian/gdvj25p/gdv"
 Entering Link 1 = /mf/cheese/Gaussian/gdvj25p/gdv/l1.exe PID=     27421.
  
 Copyright (c) 1988-2023, Gaussian, Inc.  All Rights Reserved.
  
 This is the private, development version of
 the Gaussian(R) DV system of programs. It is based on
 the Gaussian(R) 16 system (copyright 2016, Gaussian, Inc.),
 the Gaussian(R) 09 system (copyright 2009, Gaussian, Inc.),
 the Gaussian(R) 03 system (copyright 2003, Gaussian, Inc.),
 the Gaussian(R) 98 system (copyright 1998, Gaussian, Inc.),
 the Gaussian(R) 94 system (copyright 1995, Gaussian, Inc.),
 the Gaussian 92(TM) system (copyright 1992, Gaussian, Inc.),
 the Gaussian 90(TM) system (copyright 1990, Gaussian, Inc.),
 the Gaussian 88(TM) system (copyright 1988, Gaussian, Inc.),
 the Gaussian 86(TM) system (copyright 1986, Carnegie Mellon
 University), and the Gaussian 82(TM) system (copyright 1983,
 Carnegie Mellon University). Gaussian is a federally registered
 trademark of Gaussian, Inc.
  
 This software contains proprietary and confidential information,
 including trade secrets, belonging to Gaussian, Inc.
  
 This software is provided under written license and may be
 used, copied, transmitted, or stored only in accord with that
 written license.
  
 The following legend is applicable only to US Government
 contracts under FAR:
  
                    RESTRICTED RIGHTS LEGEND
  
 Use, reproduction and disclosure by the US Government is
 subject to restrictions as set forth in subparagraphs (a)
 and (c) of the Commercial Computer Software - Restricted
 Rights clause in FAR 52.227-19.
  
 Gaussian, Inc.
 340 Quinnipiac St., Bldg. 40, Wallingford CT 06492
  
  
 ---------------------------------------------------------------
 Warning -- This program may not be used in any manner that
 competes with the business of Gaussian, Inc. or will provide
 assistance to any competitor of Gaussian, Inc.  The licensee
 of this program is prohibited from giving any competitor of
 Gaussian, Inc. access to this program.  By using this program,
 the user acknowledges that Gaussian, Inc. is engaged in the
 business of creating and licensing software in the field of
 computational chemistry and represents and warrants to the
 licensee that it is not a competitor of Gaussian, Inc. and that
 it will not use this program in any manner prohibited above.
 ---------------------------------------------------------------
  

 Cite this work as:
 Gaussian Development Version, Revision J.25+,
 M. J. Frisch, G. W. Trucks, G. Scalmani, J. R. Cheeseman, X. Li, 
 J. Bloino, B. G. Janesko, A. V. Marenich, J. Zheng, F. Lipparini, 
 A. Jenkins, A. Liu, H. Liu, H. B. Schlegel, G. E. Scuseria, 
 M. A. Robb, V. Barone, G. A. Petersson, H. Nakatsuji, B. Mennucci, 
 C. Adamo, N. Rega, M. Caricato, H. P. Hratchian, J. V. Ortiz, 
 A. F. Izmaylov, H. Hu, C. Liao, J. L. Sonnenberg, D. Williams-Young, 
 F. Ding, R. Gomperts, F. Egidi, J. Goings, B. Peng, A. Petrone, 
 T. Henderson, D. Ranasinghe, V. G. Zakrzewski, J. Gao, G. Zheng, 
 W. Liang, M. Hada, M. Ehara, K. Toyota, R. Fukuda, J. Hasegawa, 
 M. Ishida, T. Nakajima, Y. Honda, O. Kitao, H. Nakai, T. Vreven, 
 K. Throssell, J. A. Montgomery, Jr., J. E. Peralta, F. Ogliaro, 
 M. J. Bearpark, J. J. Heyd, E. N. Brothers, K. N. Kudin, 
 V. N. Staroverov, T. A. Keith, R. Kobayashi, J. Normand, 
 K. Raghavachari, A. P. Rendell, J. C. Burant, S. S. Iyengar, 
 M. Cossi, J. M. Millam, M. Klene, R. Cammi, R. L. Martin, O. Farkas, 
 J. B. Foresman, and D. J. Fox, Gaussian, Inc., Wallingford CT, 2023.
 
 *******************************************
 Gaussian DV:  ES64L-GDVRevJ.25+ 30-Jun-2023
                  9-Nov-2023 
 *******************************************
 %mem=50gb
 %nprocs=8
 Will use up to    8 processors via shared memory.
 %oldchk=co_ff
 %chk=co_rroa_530nm
 Copying data from "co_ff.chk" to current chk file "co_rroa_530nm.chk"
 IOpt=  2 FromEx=T IUOpen= 4 IOptOp= 5 NList=   0 IFRang= 0 IUIn= 4 IUOut= 2.
 ----------------------------------------------------------------------
 #p b3lyp/6-311++G(2d,p) test empiricaldispersion=gd3bj geom=check gues
 s=read polar=roa cphf(rdfreq,nostatic,gamma=40) iop(10/77=1,7/33=1) ou
 tput=baf
 ----------------------------------------------------------------------
 1/29=2,38=1,83=21,172=1/1;
 2/12=2/2;
 3/5=4,6=6,7=1112,11=3,14=-4,25=1,30=1,36=2,74=-5,116=-2,124=41,160=2000000/1,2,3,8;
 4/5=1/1;
 5/5=2,38=6,98=1/2;
 8/6=4,10=90,11=11/1;
 10/13=10,49=112,72=3,77=1,110=401/2;
 6/7=2,8=2,9=2,10=2,28=1,125=2000000/1;
 7/8=1,25=21,33=1/16;
 99/5=1,6=100000,125=2000000/99;
 Leave Link    1 at Thu Nov  9 12:44:14 2023, MaxMem=  6710886400 cpu:               0.1 elap:               0.1
 (Enter /mf/cheese/Gaussian/gdvj25p/gdv/l101.exe)
 ----------------------------------------------------------------------
 CoEDDS Co3+ b3lyp+gd3bj/6-311++G(2d,p)//b3lyp+gd3bj/6-311++G(2d,p)(wat
 er) rroa 530nm Gamma=0.004au
 ----------------------------------------------------------------------
 Structure from the checkpoint file:  "co_rroa_530nm.chk"
 Charge =    -1 Multiplicity =     1
 Redundant internal coordinates found in file.  (old form).
 Co,0,0.,0.,0.1081966183
 O,0,-2.2684932222,-3.1395083653,-0.3130668925
 O,0,2.2684932222,3.1395083652,-0.3130668935
 O,0,1.6213671203,-2.893059835,2.4391863482
 O,0,-1.6213671203,2.8930598357,2.4391863472
 O,0,0.7440293911,-1.0923205998,1.5010261199
 O,0,-0.7440293911,1.0923206003,1.5010261196
 O,0,1.6076392703,1.0366582611,0.0618935358
 O,0,-1.6076392703,-1.0366582611,0.0618935361
 N,0,0.5504523607,-1.227936521,-1.2967154984
 N,0,-0.5504523607,1.2279365206,-1.2967154988
 C,0,-1.4237764456,-2.2523747761,-0.3433727185
 C,0,1.4237764456,2.252374776,-0.3433727192
 C,0,1.0915011934,-2.3314163142,1.4755549315
 C,0,-1.0915011934,2.3314163147,1.4755549307
 C,0,-0.0073964731,-2.5337797876,-0.8705263975
 C,0,0.0073964731,2.5337797874,-0.8705263983
 H,0,-0.4346983834,4.1141041515,0.5062505374
 H,0,0.4346983834,-4.1141041513,0.5062505387
 H,0,0.5335628369,-1.176053049,-3.4297923348
 H,0,-0.5335628369,1.1760530479,-3.4297923352
 H,0,-1.0480368613,-1.1071196479,-2.6488749964
 H,0,1.0480368613,1.107119647,-2.6488749968
 C,0,-0.0191770386,-0.7549797133,-2.5902507981
 C,0,0.0191770386,0.7549797125,-2.5902507984
 H,0,-1.8531455664,3.3865689113,-0.2088520601
 H,0,1.8531455664,-3.3865689114,-0.208852059
 C,0,0.867621004,-3.1595997274,0.208147055
 C,0,-0.867621004,3.1595997274,0.208147054
 H,0,0.0728371862,3.214050701,-1.7212857937
 H,0,-0.0728371862,-3.2140507015,-1.7212857927
 H,0,1.5654194538,-1.2703881667,-1.3602059912
 H,0,-1.5654194538,1.2703881663,-1.3602059916
 Recover connectivity data from disk.
 ITRead=  0  0  0  0  0  0  0  0  0  0  0  0  0  0  0  0  0  0  0  0
 ITRead=  0  0  0  0  0  0  0  0  0  0  0  0  0
 MicOpt= -1 -1 -1 -1 -1 -1 -1 -1 -1 -1 -1 -1 -1 -1 -1 -1 -1 -1 -1 -1
 MicOpt= -1 -1 -1 -1 -1 -1 -1 -1 -1 -1 -1 -1 -1
                           ----------------------------
                           !    Current Parameters    !
                           ! (Angstroms and Degrees)  !
 --------------------------                            --------------------------
 ! Name  Definition              Value          Derivative Info.                !
 --------------------------------------------------------------------------------
 ! R1    R(1,6)                  1.9201         estimate D2E/DX2                !
 ! R2    R(1,7)                  1.9201         estimate D2E/DX2                !
 ! R3    R(1,8)                  1.9135         estimate D2E/DX2                !
 ! R4    R(1,9)                  1.9135         estimate D2E/DX2                !
 ! R5    R(1,10)                 1.9454         estimate D2E/DX2                !
 ! R6    R(1,11)                 1.9454         estimate D2E/DX2                !
 ! R7    R(2,12)                 1.2253         estimate D2E/DX2                !
 ! R8    R(3,13)                 1.2253         estimate D2E/DX2                !
 ! R9    R(4,14)                 1.2348         estimate D2E/DX2                !
 ! R10   R(5,15)                 1.2348         estimate D2E/DX2                !
 ! R11   R(6,14)                 1.2871         estimate D2E/DX2                !
 ! R12   R(7,15)                 1.2871         estimate D2E/DX2                !
 ! R13   R(8,13)                 1.2946         estimate D2E/DX2                !
 ! R14   R(9,12)                 1.2946         estimate D2E/DX2                !
 ! R15   R(10,16)                1.4826         estimate D2E/DX2                !
 ! R16   R(10,24)                1.4904         estimate D2E/DX2                !
 ! R17   R(10,32)                1.0178         estimate D2E/DX2                !
 ! R18   R(11,17)                1.4826         estimate D2E/DX2                !
 ! R19   R(11,25)                1.4904         estimate D2E/DX2                !
 ! R20   R(11,33)                1.0178         estimate D2E/DX2                !
 ! R21   R(12,16)                1.5373         estimate D2E/DX2                !
 ! R22   R(13,17)                1.5373         estimate D2E/DX2                !
 ! R23   R(14,28)                1.5305         estimate D2E/DX2                !
 ! R24   R(15,29)                1.5305         estimate D2E/DX2                !
 ! R25   R(16,28)                1.5234         estimate D2E/DX2                !
 ! R26   R(16,31)                1.0913         estimate D2E/DX2                !
 ! R27   R(17,29)                1.5234         estimate D2E/DX2                !
 ! R28   R(17,30)                1.0913         estimate D2E/DX2                !
 ! R29   R(18,29)                1.0897         estimate D2E/DX2                !
 ! R30   R(19,28)                1.0897         estimate D2E/DX2                !
 ! R31   R(20,24)                1.0898         estimate D2E/DX2                !
 ! R32   R(21,25)                1.0898         estimate D2E/DX2                !
 ! R33   R(22,24)                1.089          estimate D2E/DX2                !
 ! R34   R(23,25)                1.089          estimate D2E/DX2                !
 ! R35   R(24,25)                1.5104         estimate D2E/DX2                !
 ! R36   R(26,29)                1.0939         estimate D2E/DX2                !
 ! R37   R(27,28)                1.0939         estimate D2E/DX2                !
 ! A1    A(6,1,7)               86.9956         estimate D2E/DX2                !
 ! A2    A(6,1,8)               90.0113         estimate D2E/DX2                !
 ! A3    A(6,1,9)               92.0006         estimate D2E/DX2                !
 ! A4    A(6,1,10)              93.1606         estimate D2E/DX2                !
 ! A5    A(7,1,8)               92.0006         estimate D2E/DX2                !
 ! A6    A(7,1,9)               90.0113         estimate D2E/DX2                !
 ! A7    A(7,1,11)              93.1606         estimate D2E/DX2                !
 ! A8    A(8,1,10)              94.9774         estimate D2E/DX2                !
 ! A9    A(8,1,11)              83.009          estimate D2E/DX2                !
 ! A10   A(9,1,10)              83.009          estimate D2E/DX2                !
 ! A11   A(9,1,11)              94.9774         estimate D2E/DX2                !
 ! A12   A(10,1,11)             87.5323         estimate D2E/DX2                !
 ! A13   A(1,6,14)             129.636          estimate D2E/DX2                !
 ! A14   A(1,7,15)             129.636          estimate D2E/DX2                !
 ! A15   A(1,8,13)             113.3914         estimate D2E/DX2                !
 ! A16   A(1,9,12)             113.3914         estimate D2E/DX2                !
 ! A17   A(1,10,16)            103.9981         estimate D2E/DX2                !
 ! A18   A(1,10,24)            108.5617         estimate D2E/DX2                !
 ! A19   A(1,10,32)            110.7031         estimate D2E/DX2                !
 ! A20   A(16,10,24)           112.6549         estimate D2E/DX2                !
 ! A21   A(16,10,32)           110.8794         estimate D2E/DX2                !
 ! A22   A(24,10,32)           109.8897         estimate D2E/DX2                !
 ! A23   A(1,11,17)            103.9981         estimate D2E/DX2                !
 ! A24   A(1,11,25)            108.5617         estimate D2E/DX2                !
 ! A25   A(1,11,33)            110.7031         estimate D2E/DX2                !
 ! A26   A(17,11,25)           112.6549         estimate D2E/DX2                !
 ! A27   A(17,11,33)           110.8794         estimate D2E/DX2                !
 ! A28   A(25,11,33)           109.8897         estimate D2E/DX2                !
 ! A29   A(2,12,9)             125.045          estimate D2E/DX2                !
 ! A30   A(2,12,16)            120.7377         estimate D2E/DX2                !
 ! A31   A(9,12,16)            114.211          estimate D2E/DX2                !
 ! A32   A(3,13,8)             125.045          estimate D2E/DX2                !
 ! A33   A(3,13,17)            120.7377         estimate D2E/DX2                !
 ! A34   A(8,13,17)            114.211          estimate D2E/DX2                !
 ! A35   A(4,14,6)             122.5648         estimate D2E/DX2                !
 ! A36   A(4,14,28)            117.5738         estimate D2E/DX2                !
 ! A37   A(6,14,28)            119.8564         estimate D2E/DX2                !
 ! A38   A(5,15,7)             122.5648         estimate D2E/DX2                !
 ! A39   A(5,15,29)            117.5738         estimate D2E/DX2                !
 ! A40   A(7,15,29)            119.8564         estimate D2E/DX2                !
 ! A41   A(10,16,12)           106.5003         estimate D2E/DX2                !
 ! A42   A(10,16,28)           110.4412         estimate D2E/DX2                !
 ! A43   A(10,16,31)           110.3358         estimate D2E/DX2                !
 ! A44   A(12,16,28)           111.1984         estimate D2E/DX2                !
 ! A45   A(12,16,31)           109.0384         estimate D2E/DX2                !
 ! A46   A(28,16,31)           109.2913         estimate D2E/DX2                !
 ! A47   A(11,17,13)           106.5003         estimate D2E/DX2                !
 ! A48   A(11,17,29)           110.4412         estimate D2E/DX2                !
 ! A49   A(11,17,30)           110.3358         estimate D2E/DX2                !
 ! A50   A(13,17,29)           111.1984         estimate D2E/DX2                !
 ! A51   A(13,17,30)           109.0384         estimate D2E/DX2                !
 ! A52   A(29,17,30)           109.2913         estimate D2E/DX2                !
 ! A53   A(10,24,20)           110.6183         estimate D2E/DX2                !
 ! A54   A(10,24,22)           107.7692         estimate D2E/DX2                !
 ! A55   A(10,24,25)           107.9099         estimate D2E/DX2                !
 ! A56   A(20,24,22)           108.226          estimate D2E/DX2                !
 ! A57   A(20,24,25)           111.9239         estimate D2E/DX2                !
 ! A58   A(22,24,25)           110.3184         estimate D2E/DX2                !
 ! A59   A(11,25,21)           110.6183         estimate D2E/DX2                !
 ! A60   A(11,25,23)           107.7692         estimate D2E/DX2                !
 ! A61   A(11,25,24)           107.9099         estimate D2E/DX2                !
 ! A62   A(21,25,23)           108.226          estimate D2E/DX2                !
 ! A63   A(21,25,24)           111.9239         estimate D2E/DX2                !
 ! A64   A(23,25,24)           110.3184         estimate D2E/DX2                !
 ! A65   A(14,28,16)           116.6205         estimate D2E/DX2                !
 ! A66   A(14,28,19)           107.7929         estimate D2E/DX2                !
 ! A67   A(14,28,27)           107.2273         estimate D2E/DX2                !
 ! A68   A(16,28,19)           108.9868         estimate D2E/DX2                !
 ! A69   A(16,28,27)           109.4378         estimate D2E/DX2                !
 ! A70   A(19,28,27)           106.2883         estimate D2E/DX2                !
 ! A71   A(15,29,17)           116.6205         estimate D2E/DX2                !
 ! A72   A(15,29,18)           107.7929         estimate D2E/DX2                !
 ! A73   A(15,29,26)           107.2273         estimate D2E/DX2                !
 ! A74   A(17,29,18)           108.9868         estimate D2E/DX2                !
 ! A75   A(17,29,26)           109.4378         estimate D2E/DX2                !
 ! A76   A(18,29,26)           106.2883         estimate D2E/DX2                !
 ! A77   L(6,1,11,7,-1)        180.1562         estimate D2E/DX2                !
 ! A78   L(7,1,10,6,-1)        180.1562         estimate D2E/DX2                !
 ! A79   L(8,1,9,6,-1)         182.0119         estimate D2E/DX2                !
 ! A80   L(6,1,11,7,-2)        173.0116         estimate D2E/DX2                !
 ! A81   L(7,1,10,6,-2)        173.0116         estimate D2E/DX2                !
 ! A82   L(8,1,9,6,-2)         181.9091         estimate D2E/DX2                !
 ! D1    D(7,1,6,14)           155.5436         estimate D2E/DX2                !
 ! D2    D(8,1,6,14)          -112.4536         estimate D2E/DX2                !
 ! D3    D(9,1,6,14)            65.6373         estimate D2E/DX2                !
 ! D4    D(10,1,6,14)          -17.468          estimate D2E/DX2                !
 ! D5    D(6,1,7,15)           155.5436         estimate D2E/DX2                !
 ! D6    D(8,1,7,15)            65.6373         estimate D2E/DX2                !
 ! D7    D(9,1,7,15)          -112.4536         estimate D2E/DX2                !
 ! D8    D(11,1,7,15)          -17.468          estimate D2E/DX2                !
 ! D9    D(6,1,8,13)          -152.7919         estimate D2E/DX2                !
 ! D10   D(7,1,8,13)           -65.7977         estimate D2E/DX2                !
 ! D11   D(10,1,8,13)          114.0345         estimate D2E/DX2                !
 ! D12   D(11,1,8,13)           27.1428         estimate D2E/DX2                !
 ! D13   D(6,1,9,12)           -65.7977         estimate D2E/DX2                !
 ! D14   D(7,1,9,12)          -152.7919         estimate D2E/DX2                !
 ! D15   D(10,1,9,12)           27.1428         estimate D2E/DX2                !
 ! D16   D(11,1,9,12)          114.0345         estimate D2E/DX2                !
 ! D17   D(6,1,10,16)           53.4373         estimate D2E/DX2                !
 ! D18   D(6,1,10,24)          173.6003         estimate D2E/DX2                !
 ! D19   D(6,1,10,32)          -65.6986         estimate D2E/DX2                !
 ! D20   D(8,1,10,16)          143.7242         estimate D2E/DX2                !
 ! D21   D(8,1,10,24)          -96.1128         estimate D2E/DX2                !
 ! D22   D(8,1,10,32)           24.5883         estimate D2E/DX2                !
 ! D23   D(9,1,10,16)          -38.1933         estimate D2E/DX2                !
 ! D24   D(9,1,10,24)           81.9698         estimate D2E/DX2                !
 ! D25   D(9,1,10,32)         -157.3291         estimate D2E/DX2                !
 ! D26   D(11,1,10,16)        -133.5167         estimate D2E/DX2                !
 ! D27   D(11,1,10,24)         -13.3537         estimate D2E/DX2                !
 ! D28   D(11,1,10,32)         107.3474         estimate D2E/DX2                !
 ! D29   D(7,1,11,17)           53.4373         estimate D2E/DX2                !
 ! D30   D(7,1,11,25)          173.6003         estimate D2E/DX2                !
 ! D31   D(7,1,11,33)          -65.6986         estimate D2E/DX2                !
 ! D32   D(8,1,11,17)          -38.1933         estimate D2E/DX2                !
 ! D33   D(8,1,11,25)           81.9698         estimate D2E/DX2                !
 ! D34   D(8,1,11,33)         -157.3291         estimate D2E/DX2                !
 ! D35   D(9,1,11,17)          143.7242         estimate D2E/DX2                !
 ! D36   D(9,1,11,25)          -96.1128         estimate D2E/DX2                !
 ! D37   D(9,1,11,33)           24.5883         estimate D2E/DX2                !
 ! D38   D(10,1,11,17)        -133.5167         estimate D2E/DX2                !
 ! D39   D(10,1,11,25)         -13.3537         estimate D2E/DX2                !
 ! D40   D(10,1,11,33)         107.3474         estimate D2E/DX2                !
 ! D41   D(1,6,14,4)           176.4078         estimate D2E/DX2                !
 ! D42   D(1,6,14,28)           -2.7615         estimate D2E/DX2                !
 ! D43   D(1,7,15,5)           176.4078         estimate D2E/DX2                !
 ! D44   D(1,7,15,29)           -2.7615         estimate D2E/DX2                !
 ! D45   D(1,8,13,3)           171.3455         estimate D2E/DX2                !
 ! D46   D(1,8,13,17)           -7.7471         estimate D2E/DX2                !
 ! D47   D(1,9,12,2)           171.3455         estimate D2E/DX2                !
 ! D48   D(1,9,12,16)           -7.7471         estimate D2E/DX2                !
 ! D49   D(1,10,16,12)          41.889          estimate D2E/DX2                !
 ! D50   D(1,10,16,28)         -78.9668         estimate D2E/DX2                !
 ! D51   D(1,10,16,31)         160.093          estimate D2E/DX2                !
 ! D52   D(24,10,16,12)        -75.469          estimate D2E/DX2                !
 ! D53   D(24,10,16,28)        163.6752         estimate D2E/DX2                !
 ! D54   D(24,10,16,31)         42.7349         estimate D2E/DX2                !
 ! D55   D(32,10,16,12)        160.9044         estimate D2E/DX2                !
 ! D56   D(32,10,16,28)         40.0487         estimate D2E/DX2                !
 ! D57   D(32,10,16,31)        -80.8916         estimate D2E/DX2                !
 ! D58   D(1,10,24,20)         159.6034         estimate D2E/DX2                !
 ! D59   D(1,10,24,22)         -82.2659         estimate D2E/DX2                !
 ! D60   D(1,10,24,25)          36.8628         estimate D2E/DX2                !
 ! D61   D(16,10,24,20)        -85.7732         estimate D2E/DX2                !
 ! D62   D(16,10,24,22)         32.3576         estimate D2E/DX2                !
 ! D63   D(16,10,24,25)        151.4862         estimate D2E/DX2                !
 ! D64   D(32,10,24,20)         38.4006         estimate D2E/DX2                !
 ! D65   D(32,10,24,22)        156.5314         estimate D2E/DX2                !
 ! D66   D(32,10,24,25)        -84.34           estimate D2E/DX2                !
 ! D67   D(1,11,17,13)          41.889          estimate D2E/DX2                !
 ! D68   D(1,11,17,29)         -78.9668         estimate D2E/DX2                !
 ! D69   D(1,11,17,30)         160.093          estimate D2E/DX2                !
 ! D70   D(25,11,17,13)        -75.469          estimate D2E/DX2                !
 ! D71   D(25,11,17,29)        163.6752         estimate D2E/DX2                !
 ! D72   D(25,11,17,30)         42.7349         estimate D2E/DX2                !
 ! D73   D(33,11,17,13)        160.9044         estimate D2E/DX2                !
 ! D74   D(33,11,17,29)         40.0487         estimate D2E/DX2                !
 ! D75   D(33,11,17,30)        -80.8916         estimate D2E/DX2                !
 ! D76   D(1,11,25,21)         159.6034         estimate D2E/DX2                !
 ! D77   D(1,11,25,23)         -82.2659         estimate D2E/DX2                !
 ! D78   D(1,11,25,24)          36.8628         estimate D2E/DX2                !
 ! D79   D(17,11,25,21)        -85.7732         estimate D2E/DX2                !
 ! D80   D(17,11,25,23)         32.3576         estimate D2E/DX2                !
 ! D81   D(17,11,25,24)        151.4862         estimate D2E/DX2                !
 ! D82   D(33,11,25,21)         38.4006         estimate D2E/DX2                !
 ! D83   D(33,11,25,23)        156.5314         estimate D2E/DX2                !
 ! D84   D(33,11,25,24)        -84.34           estimate D2E/DX2                !
 ! D85   D(2,12,16,10)         157.0721         estimate D2E/DX2                !
 ! D86   D(2,12,16,28)         -82.5587         estimate D2E/DX2                !
 ! D87   D(2,12,16,31)          38.0178         estimate D2E/DX2                !
 ! D88   D(9,12,16,10)         -23.7922         estimate D2E/DX2                !
 ! D89   D(9,12,16,28)          96.577          estimate D2E/DX2                !
 ! D90   D(9,12,16,31)        -142.8466         estimate D2E/DX2                !
 ! D91   D(3,13,17,11)         157.0721         estimate D2E/DX2                !
 ! D92   D(3,13,17,29)         -82.5587         estimate D2E/DX2                !
 ! D93   D(3,13,17,30)          38.0178         estimate D2E/DX2                !
 ! D94   D(8,13,17,11)         -23.7922         estimate D2E/DX2                !
 ! D95   D(8,13,17,29)          96.577          estimate D2E/DX2                !
 ! D96   D(8,13,17,30)        -142.8466         estimate D2E/DX2                !
 ! D97   D(4,14,28,16)         169.2146         estimate D2E/DX2                !
 ! D98   D(4,14,28,19)          46.3223         estimate D2E/DX2                !
 ! D99   D(4,14,28,27)         -67.7511         estimate D2E/DX2                !
 ! D100  D(6,14,28,16)         -11.5751         estimate D2E/DX2                !
 ! D101  D(6,14,28,19)        -134.4675         estimate D2E/DX2                !
 ! D102  D(6,14,28,27)         111.4591         estimate D2E/DX2                !
 ! D103  D(5,15,29,17)         169.2146         estimate D2E/DX2                !
 ! D104  D(5,15,29,18)          46.3223         estimate D2E/DX2                !
 ! D105  D(5,15,29,26)         -67.7511         estimate D2E/DX2                !
 ! D106  D(7,15,29,17)         -11.5751         estimate D2E/DX2                !
 ! D107  D(7,15,29,18)        -134.4675         estimate D2E/DX2                !
 ! D108  D(7,15,29,26)         111.4591         estimate D2E/DX2                !
 ! D109  D(10,16,28,14)         57.4997         estimate D2E/DX2                !
 ! D110  D(10,16,28,19)        179.771          estimate D2E/DX2                !
 ! D111  D(10,16,28,27)        -64.3829         estimate D2E/DX2                !
 ! D112  D(12,16,28,14)        -60.5125         estimate D2E/DX2                !
 ! D113  D(12,16,28,19)         61.7587         estimate D2E/DX2                !
 ! D114  D(12,16,28,27)        177.6049         estimate D2E/DX2                !
 ! D115  D(31,16,28,14)        179.0602         estimate D2E/DX2                !
 ! D116  D(31,16,28,19)        -58.6686         estimate D2E/DX2                !
 ! D117  D(31,16,28,27)         57.1776         estimate D2E/DX2                !
 ! D118  D(11,17,29,15)         57.4997         estimate D2E/DX2                !
 ! D119  D(11,17,29,18)        179.771          estimate D2E/DX2                !
 ! D120  D(11,17,29,26)        -64.3829         estimate D2E/DX2                !
 ! D121  D(13,17,29,15)        -60.5125         estimate D2E/DX2                !
 ! D122  D(13,17,29,18)         61.7587         estimate D2E/DX2                !
 ! D123  D(13,17,29,26)        177.6049         estimate D2E/DX2                !
 ! D124  D(30,17,29,15)        179.0602         estimate D2E/DX2                !
 ! D125  D(30,17,29,18)        -58.6686         estimate D2E/DX2                !
 ! D126  D(30,17,29,26)         57.1776         estimate D2E/DX2                !
 ! D127  D(10,24,25,11)        -48.4087         estimate D2E/DX2                !
 ! D128  D(10,24,25,21)       -170.3464         estimate D2E/DX2                !
 ! D129  D(10,24,25,23)         69.0864         estimate D2E/DX2                !
 ! D130  D(20,24,25,11)       -170.3464         estimate D2E/DX2                !
 ! D131  D(20,24,25,21)         67.7158         estimate D2E/DX2                !
 ! D132  D(20,24,25,23)        -52.8513         estimate D2E/DX2                !
 ! D133  D(22,24,25,11)         69.0864         estimate D2E/DX2                !
 ! D134  D(22,24,25,21)        -52.8513         estimate D2E/DX2                !
 ! D135  D(22,24,25,23)       -173.4185         estimate D2E/DX2                !
 --------------------------------------------------------------------------------
 NAtoms=     33 NQM=       33 NQMF=       0 NMMI=      0 NMMIF=      0
                NMic=       0 NMicF=      0.
                    Isotopes and Nuclear Properties:
 (Nuclear quadrupole moments (NQMom) in fm**2, nuclear magnetic moments (NMagM)
  in nuclear magnetons)

  Atom         1           2           3           4           5           6           7           8           9          10
 IAtWgt=          59          16          16          16          16          16          16          16          16          14
 AtmWgt=  58.9331978  15.9949146  15.9949146  15.9949146  15.9949146  15.9949146  15.9949146  15.9949146  15.9949146  14.0030740
 NucSpn=           7           0           0           0           0           0           0           0           0           2
 AtZEff=  25.3800000   5.6000000   5.6000000   5.6000000   5.6000000   5.6000000   5.6000000   5.6000000   5.6000000   4.5500000
 NQMom=   42.0000000   0.0000000   0.0000000   0.0000000   0.0000000   0.0000000   0.0000000   0.0000000   0.0000000   2.0440000
 NMagM=    4.6270000   0.0000000   0.0000000   0.0000000   0.0000000   0.0000000   0.0000000   0.0000000   0.0000000   0.4037610
 AtZNuc=  27.0000000   8.0000000   8.0000000   8.0000000   8.0000000   8.0000000   8.0000000   8.0000000   8.0000000   7.0000000

  Atom        11          12          13          14          15          16          17          18          19          20
 IAtWgt=          14          12          12          12          12          12          12           1           1           1
 AtmWgt=  14.0030740  12.0000000  12.0000000  12.0000000  12.0000000  12.0000000  12.0000000   1.0078250   1.0078250   1.0078250
 NucSpn=           2           0           0           0           0           0           0           1           1           1
 AtZEff=   4.5500000   3.6000000   3.6000000   3.6000000   3.6000000   3.6000000   3.6000000   1.0000000   1.0000000   1.0000000
 NQMom=    2.0440000   0.0000000   0.0000000   0.0000000   0.0000000   0.0000000   0.0000000   0.0000000   0.0000000   0.0000000
 NMagM=    0.4037610   0.0000000   0.0000000   0.0000000   0.0000000   0.0000000   0.0000000   2.7928460   2.7928460   2.7928460
 AtZNuc=   7.0000000   6.0000000   6.0000000   6.0000000   6.0000000   6.0000000   6.0000000   1.0000000   1.0000000   1.0000000

  Atom        21          22          23          24          25          26          27          28          29          30
 IAtWgt=           1           1           1          12          12           1           1          12          12           1
 AtmWgt=   1.0078250   1.0078250   1.0078250  12.0000000  12.0000000   1.0078250   1.0078250  12.0000000  12.0000000   1.0078250
 NucSpn=           1           1           1           0           0           1           1           0           0           1
 AtZEff=   1.0000000   1.0000000   1.0000000   3.6000000   3.6000000   1.0000000   1.0000000   3.6000000   3.6000000   1.0000000
 NQMom=    0.0000000   0.0000000   0.0000000   0.0000000   0.0000000   0.0000000   0.0000000   0.0000000   0.0000000   0.0000000
 NMagM=    2.7928460   2.7928460   2.7928460   0.0000000   0.0000000   2.7928460   2.7928460   0.0000000   0.0000000   2.7928460
 AtZNuc=   1.0000000   1.0000000   1.0000000   6.0000000   6.0000000   1.0000000   1.0000000   6.0000000   6.0000000   1.0000000

  Atom        31          32          33
 IAtWgt=           1           1           1
 AtmWgt=   1.0078250   1.0078250   1.0078250
 NucSpn=           1           1           1
 AtZEff=   1.0000000   1.0000000   1.0000000
 NQMom=    0.0000000   0.0000000   0.0000000
 NMagM=    2.7928460   2.7928460   2.7928460
 AtZNuc=   1.0000000   1.0000000   1.0000000
 InpFrq:  storing integers                1        100000001                0                0
          storing reals      0.00000000D+00   0.00000000D+00   0.00000000D+00   0.00000000D+00
 Using perturbation frequencies:    0.085969
 Leave Link  101 at Thu Nov  9 12:44:14 2023, MaxMem=  6710886400 cpu:               0.1 elap:               0.1
 (Enter /mf/cheese/Gaussian/gdvj25p/gdv/l202.exe)
                          Input orientation:                          
 ---------------------------------------------------------------------
 Center     Atomic      Atomic             Coordinates (Angstroms)
 Number     Number       Type             X           Y           Z
 ---------------------------------------------------------------------
      1         27           0        0.000000    0.000000    0.108197
      2          8           0       -2.268493   -3.139508   -0.313067
      3          8           0        2.268493    3.139508   -0.313067
      4          8           0        1.621367   -2.893060    2.439186
      5          8           0       -1.621367    2.893060    2.439186
      6          8           0        0.744029   -1.092321    1.501026
      7          8           0       -0.744029    1.092321    1.501026
      8          8           0        1.607639    1.036658    0.061894
      9          8           0       -1.607639   -1.036658    0.061894
     10          7           0        0.550452   -1.227937   -1.296715
     11          7           0       -0.550452    1.227937   -1.296715
     12          6           0       -1.423776   -2.252375   -0.343373
     13          6           0        1.423776    2.252375   -0.343373
     14          6           0        1.091501   -2.331416    1.475555
     15          6           0       -1.091501    2.331416    1.475555
     16          6           0       -0.007396   -2.533780   -0.870526
     17          6           0        0.007396    2.533780   -0.870526
     18          1           0       -0.434698    4.114104    0.506251
     19          1           0        0.434698   -4.114104    0.506251
     20          1           0        0.533563   -1.176053   -3.429792
     21          1           0       -0.533563    1.176053   -3.429792
     22          1           0       -1.048037   -1.107120   -2.648875
     23          1           0        1.048037    1.107120   -2.648875
     24          6           0       -0.019177   -0.754980   -2.590251
     25          6           0        0.019177    0.754980   -2.590251
     26          1           0       -1.853146    3.386569   -0.208852
     27          1           0        1.853146   -3.386569   -0.208852
     28          6           0        0.867621   -3.159600    0.208147
     29          6           0       -0.867621    3.159600    0.208147
     30          1           0        0.072837    3.214051   -1.721286
     31          1           0       -0.072837   -3.214051   -1.721286
     32          1           0        1.565419   -1.270388   -1.360206
     33          1           0       -1.565419    1.270388   -1.360206
 ---------------------------------------------------------------------
                    Distance matrix (angstroms):
                    1          2          3          4          5
     1  Co   0.000000
     2  O    3.896157   0.000000
     3  O    3.896157   7.746631   0.000000
     4  O    4.053658   4.771441   6.662248   0.000000
     5  O    4.053658   6.662248   4.771441   6.632835   0.000000
     6  O    1.920083   4.069054   4.850082   2.211906   4.728478
     7  O    1.920083   4.850082   4.069054   4.728478   2.211906
     8  O    1.913455   5.710111   2.235912   4.592863   4.418623
     9  O    1.913455   2.235912   5.710111   4.418623   4.592863
    10  N    1.945406   3.545155   4.795185   4.228056   5.971296
    11  N    1.945406   4.795185   3.545155   5.971296   4.228056
    12  C    2.702637   1.225345   6.534996   4.174447   5.852963
    13  C    2.702637   6.534996   1.225345   5.852963   4.174447
    14  C    2.914883   3.891239   5.874989   1.234823   5.965182
    15  C    2.914883   5.874989   3.891239   5.965182   1.234823
    16  C    2.716246   2.406289   6.138129   3.706231   6.558177
    17  C    2.716246   6.138129   2.406289   6.558177   3.706231
    18  H    4.156111   7.526552   2.988037   7.554071   2.575922
    19  H    4.156111   2.988037   7.526552   2.575922   7.554071
    20  H    3.766319   4.628245   5.598931   6.210986   7.459646
    21  H    3.766319   5.598931   4.628245   7.459646   6.210986
    22  H    3.150482   3.328080   5.872752   6.016948   6.497577
    23  H    3.150482   5.872752   3.328080   6.497577   6.016948
    24  C    2.802139   3.991362   5.058264   5.705963   6.416420
    25  C    2.802139   5.058264   3.991362   6.416420   5.705963
    26  H    3.873437   6.540112   4.130352   7.649711   2.703586
    27  H    3.873437   4.130352   6.540112   2.703586   7.649711
    28  C    3.278083   3.179195   6.474015   2.369961   6.914281
    29  C    3.278083   6.474015   3.179195   6.914281   2.369961
    30  H    3.698977   6.916113   2.609510   7.550117   4.503653
    31  H    3.698977   2.609510   6.916113   4.503653   7.550117
    32  H    2.494119   4.391924   4.586720   4.131776   6.474974
    33  H    2.494119   4.586720   4.391924   6.474974   4.131776
                    6          7          8          9         10
     6  O    0.000000
     7  O    2.643289   0.000000
     8  O    2.710992   2.757634   0.000000
     9  O    2.757634   2.710992   3.825788   0.000000
    10  N    2.807708   3.858320   2.844618   2.557296   0.000000
    11  N    3.858320   2.807708   2.557296   2.844618   2.691339
    12  C    3.073583   3.879543   4.491265   1.294609   2.419900
    13  C    3.879543   3.073583   1.294609   4.491265   3.712698
    14  C    1.287146   3.884816   3.689006   3.310619   3.032472
    15  C    3.884816   1.287146   3.310619   3.689006   4.801092
    16  C    2.875188   4.394940   4.028123   2.381503   1.482585
    17  C    4.394940   2.875188   2.381503   4.028123   3.824533
    18  H    5.430086   3.196317   3.720117   5.301283   5.723514
    19  H    3.196317   5.430086   5.301283   3.720117   3.405004
    20  H    4.936018   5.575906   4.271019   4.098298   2.133775
    21  H    5.575906   4.936018   4.098298   4.271019   3.391795
    22  H    4.520332   4.706553   4.358516   2.768824   2.097165
    23  H    4.706553   4.520332   2.768824   4.358516   2.743795
    24  C    4.175504   4.547139   3.590316   3.104259   1.490436
    25  C    4.547139   4.175504   3.104259   3.590316   2.426406
    26  H    5.452472   3.068778   4.191946   4.438301   5.315486
    27  H    3.068778   5.452472   4.438301   4.191946   2.745933
    28  C    2.441404   4.727344   4.263519   3.264228   2.469115
    29  C    4.727344   2.441404   3.264228   4.263519   4.850363
    30  H    5.420205   3.943641   3.205680   4.906349   4.487720
    31  H    3.943641   5.420205   4.906349   3.205680   2.124476
    32  H    2.982120   4.370652   2.710464   3.485011   1.017837
    33  H    4.370652   2.982120   3.485011   2.710464   3.274534
                   11         12         13         14         15
    11  N    0.000000
    12  C    3.712698   0.000000
    13  C    2.419900   5.329289   0.000000
    14  C    4.801092   3.105055   4.942676   0.000000
    15  C    3.032472   4.942676   3.105055   5.148544   0.000000
    16  C    3.824533   1.537274   5.023288   2.598581   5.509039
    17  C    1.482585   5.023288   1.537274   5.509039   2.598581
    18  H    3.405004   6.498630   2.764385   6.694294   2.132819
    19  H    5.723514   2.764385   6.498630   2.132819   6.694294
    20  H    3.391795   3.809939   4.698147   5.070364   6.245447
    21  H    2.133775   4.698147   3.809939   6.245447   5.070364
    22  H    2.743795   2.601563   4.765648   4.804940   5.369948
    23  H    2.097165   4.765648   2.601563   5.369948   4.804940
    24  C    2.426406   3.043608   4.021785   4.499948   5.215985
    25  C    1.490436   4.021785   3.043608   5.215985   4.499948
    26  H    2.745933   5.656867   3.470261   6.648573   2.128538
    27  H    5.315486   3.470261   5.656867   2.128538   6.648573
    28  C    4.850363   2.525417   5.468359   1.530468   5.966217
    29  C    2.469115   5.468359   2.525417   5.966217   1.530468
    30  H    2.124476   5.832693   2.156038   6.481487   3.514899
    31  H    4.487720   2.156038   5.832693   3.514899   6.481487
    32  H    3.274534   3.306590   3.669315   3.064624   5.298468
    33  H    1.017837   3.669315   3.306590   5.298468   3.064624
                   16         17         18         19         20
    16  C    0.000000
    17  C    5.067581   0.000000
    18  H    6.802387   2.142052   0.000000
    19  H    2.142052   6.802387   8.274011   0.000000
    20  H    2.947185   4.537571   6.664512   4.912673   0.000000
    21  H    4.537571   2.947185   4.912673   6.664512   2.582859
    22  H    2.506155   4.187196   6.131246   4.603833   1.765231
    23  H    4.187196   2.506155   4.603833   6.131246   2.467264
    24  C    2.474211   3.711347   5.785236   4.591083   1.089795
    25  C    3.711347   2.474211   4.591083   5.785236   2.167559
    26  H    6.236596   2.150972   1.747190   7.874370   6.073578
    27  H    2.150972   6.236596   7.874370   1.747190   4.123365
    28  C    1.523431   5.858165   7.395382   1.089663   4.157001
    29  C    5.858165   1.523431   1.089663   7.395382   5.830592
    30  H    5.811005   1.091257   2.455526   7.667771   4.733315
    31  H    1.091257   5.811005   7.667771   2.455526   2.727664
    32  H    2.075980   4.139917   6.039610   3.584538   2.314479
    33  H    4.139917   2.075980   3.584538   6.039610   3.830664
                   21         22         23         24         25
    21  H    0.000000
    22  H    2.467264   0.000000
    23  H    1.765231   3.048997   0.000000
    24  C    2.167559   1.089033   2.147044   0.000000
    25  C    1.089795   2.147044   1.089033   1.510446   0.000000
    26  H    4.123365   5.176403   4.423399   5.117316   4.012719
    27  H    6.073578   4.423399   5.176403   4.012719   5.117316
    28  C    5.830592   4.005620   5.138095   3.794686   4.886187
    29  C    4.157001   5.138095   4.005620   4.886187   3.794686
    30  H    2.727664   4.559528   2.500119   4.064083   2.608641
    31  H    4.733315   2.500119   4.559528   2.608641   4.064083
    32  H    3.830664   2.918472   2.753343   2.071135   2.829486
    33  H    2.314479   2.753343   2.918472   2.829486   2.071135
                   26         27         28         29         30
    26  H    0.000000
    27  H    7.720880   0.000000
    28  C    7.101323   1.093920   0.000000
    29  C    1.093920   7.101323   6.553117   0.000000
    30  H    2.454919   7.001795   6.706550   2.147123   0.000000
    31  H    7.001795   2.454919   2.147123   6.706550   6.429752
    32  H    5.890624   2.426236   2.552601   5.291900   4.740081
    33  H    2.426236   5.890624   5.291900   2.552601   2.567506
                   31         32         33
    31  H    0.000000
    32  H    2.567506   0.000000
    33  H    4.740081   4.032083   0.000000
 Stoichiometry    C10H12CoN2O8(1-)
 Framework group  C2[C2(Co),X(C10H12N2O8)]
 Deg. of freedom    47
 Full point group                 C2      NOp   2
 RotChk:  IX=0 Diff= 9.29D-16
 Largest Abelian subgroup         C2      NOp   2
 Largest concise Abelian subgroup C2      NOp   2
                         Standard orientation:                         
 ---------------------------------------------------------------------
 Center     Atomic      Atomic             Coordinates (Angstroms)
 Number     Number       Type             X           Y           Z
 ---------------------------------------------------------------------
      1         27           0        0.000000    0.000000    0.104688
      2          8           0       -3.018848   -2.426753   -0.316575
      3          8           0        3.018848    2.426753   -0.316575
      4          8           0        0.797419   -3.219122    2.435678
      5          8           0       -0.797419    3.219122    2.435678
      6          8           0        0.428228   -1.250346    1.497518
      7          8           0       -0.428228    1.250346    1.497518
      8          8           0        1.824757    0.573957    0.058385
      9          8           0       -1.824757   -0.573957    0.058385
     10          7           0        0.205650   -1.329862   -1.300224
     11          7           0       -0.205650    1.329862   -1.300224
     12          6           0       -1.969375   -1.794964   -0.346881
     13          6           0        1.969375    1.794964   -0.346881
     14          6           0        0.435189   -2.537220    1.472046
     15          6           0       -0.435189    2.537220    1.472046
     16          6           0       -0.678068   -2.441376   -0.874035
     17          6           0        0.678068    2.441376   -0.874035
     18          1           0        0.670219    4.082355    0.502742
     19          1           0       -0.670219   -4.082355    0.502742
     20          1           0        0.203102   -1.275359   -3.433301
     21          1           0       -0.203102    1.275359   -3.433301
     22          1           0       -1.303788   -0.790084   -2.652384
     23          1           0        1.303788    0.790084   -2.652384
     24          6           0       -0.218408   -0.722952   -2.593759
     25          6           0        0.218408    0.722952   -2.593759
     26          1           0       -0.890245    3.756389   -0.212361
     27          1           0        0.890245   -3.756389   -0.212361
     28          6           0        0.000000   -3.276559    0.204638
     29          6           0        0.000000    3.276559    0.204638
     30          1           0        0.921306    3.080036   -1.724794
     31          1           0       -0.921306   -3.080036   -1.724794
     32          1           0        1.173147   -1.639558   -1.363715
     33          1           0       -1.173147    1.639558   -1.363715
 ---------------------------------------------------------------------
 Rotational constants (GHZ):           0.4752164           0.2643314           0.2477140
 Leave Link  202 at Thu Nov  9 12:44:14 2023, MaxMem=  6710886400 cpu:               0.0 elap:               0.0
 (Enter /mf/cheese/Gaussian/gdvj25p/gdv/l301.exe)
 Standard basis: 6-311++G(2d,p) (5D, 7F)
 Ernie: Thresh=  0.10000D-02 Tol=  0.10000D-05 Strict=F.
 There are   373 symmetry adapted cartesian basis functions of A   symmetry.
 There are   366 symmetry adapted cartesian basis functions of B   symmetry.
 There are   347 symmetry adapted basis functions of A   symmetry.
 There are   342 symmetry adapted basis functions of B   symmetry.
   689 basis functions,  1052 primitive gaussians,   739 cartesian basis functions
    89 alpha electrons       89 beta electrons
       nuclear repulsion energy      2524.1201064599 Hartrees.
 IExCor=      4002 DFT=T Ex+Corr=B3LYP ScaHFX=  0.200000
 ScaDFX=  0.800000  0.720000  1.000000  0.810000  1.000000  0.000000
 ScaDFX=  0.000000  0.000000  0.000000  0.000000  0.000000  0.000000
 IRadAn=      5 IRanWt=     -1 IRanGd=            0 ICorTp=0 IEmpDi=141
 NAtoms=   33 NActive=   33 NUniq=   17 SFac= 3.77D+00 NAtFMM=   60 NAOKFM=F Big=F
 Integral buffers will be    131072 words long.
 Raffenetti 3 integral format.
 Two-electron integral symmetry is turned on.
 R6Disp:  Grimme-D3(BJ) Dispersion energy=       -0.0828927539 Hartrees.
 Nuclear repulsion after empirical dispersion term =     2524.0372137060 Hartrees.
 Leave Link  301 at Thu Nov  9 12:44:14 2023, MaxMem=  6710886400 cpu:               0.0 elap:               0.0
 (Enter /mf/cheese/Gaussian/gdvj25p/gdv/l302.exe)
 NPDir=0 NMtPBC=     1 NCelOv=     1 NCel=       1 NClECP=     1 NCelD=      1
         NCelK=      1 NCelE2=     1 NClLst=     1 CellRange=     0.0.
 One-electron integrals computed using PRISM.
 One-electron integral symmetry used in STVInt
 Error in orthogonal basis= 1.80D-10 with   689 functions, increasing threshold to 2.00D-06.
 Error in orthogonal basis= 1.80D-10 with   689 functions, increasing threshold to 4.00D-06.
 Error in orthogonal basis= 1.80D-10 with   689 functions, increasing threshold to 8.00D-06.
 Error in orthogonal basis= 2.66D-11 with   685 functions, increasing threshold to 1.00D-05.
 NBasis=   689 RedAO= T EigKep=  1.42D-05  NBF=   347   342
 NBsUse=   685 1.00D-05 EigRej=  7.23D-06 NBFU=   345   340
 Precomputing XC quadrature grid using
 IXCGrd= 4 IRadAn=           5 IRanWt=          -1 IRanGd=           0 AccXCQ= 0.00D+00.
 Generated NRdTot=       0 NPtTot=      717126 NUsed=           0 NTot=          64
 NSgBfM=   723   723   723   723   723 MxSgAt=    33 MxSgA2=    33 SizInc=   0.000
 NMBTot=     6600 MaxBatPerAtom=       89 MaxMicBPerAtom=      254 NBfPt=           331814757.
 Leave Link  302 at Thu Nov  9 12:44:14 2023, MaxMem=  6710886400 cpu:               2.5 elap:               0.5
 (Enter /mf/cheese/Gaussian/gdvj25p/gdv/l303.exe)
 DipDrv:  MaxL=2.
 Leave Link  303 at Thu Nov  9 12:44:14 2023, MaxMem=  6710886400 cpu:               0.1 elap:               0.1
 (Enter /mf/cheese/Gaussian/gdvj25p/gdv/l308.exe)
 Leave Link  308 at Thu Nov  9 12:44:15 2023, MaxMem=  6710886400 cpu:               0.2 elap:               0.1
 (Enter /mf/cheese/Gaussian/gdvj25p/gdv/l401.exe)
 Initial guess from the checkpoint file:  "co_rroa_530nm.chk"
 B after Tr=     0.000000    0.000000    0.000000
         Rot=    1.000000    0.000000    0.000000    0.000000 Ang=   0.00 deg.
 AO Guess basis will be translated and rotated to current coordinates.
 JPrj=2 DoOrth=T DoCkMO=T.
 Initial guess orbital symmetries:
       Occupied  (A) (A) (B) (A) (B) (B) (A) (B) (A) (A) (B) (B)
                 (A) (A) (B) (A) (B) (A) (B) (A) (B) (A) (B) (B)
                 (A) (A) (B) (A) (B) (A) (B) (A) (B) (A) (B) (A)
                 (A) (B) (B) (A) (B) (A) (B) (A) (B) (A) (B) (A)
                 (B) (A) (A) (B) (A) (B) (B) (A) (B) (A) (B) (B)
                 (A) (B) (A) (A) (A) (B) (B) (B) (A) (A) (A) (B)
                 (B) (A) (A) (B) (A) (A) (B) (B) (A) (B) (A) (A)
                 (B) (B) (A) (A) (B)
       Virtual   (A) (B) (A) (B) (B) (A) (A) (B) (A) (B) (A) (B)
                 (A) (A) (B) (A) (B) (A) (B) (B) (A) (B) (A) (A)
                 (B) (A) (B) (A) (B) (B) (A) (A) (A) (B) (B) (A)
                 (B) (A) (B) (A) (B) (B) (A) (A) (B) (A) (B) (A)
                 (B) (B) (A) (B) (A) (A) (B) (B) (A) (B) (A) (A)
                 (B) (A) (B) (A) (B) (A) (B) (A) (B) (A) (B) (B)
                 (A) (A) (B) (B) (A) (B) (A) (B) (A) (B) (B) (A)
                 (A) (B) (B) (A) (A) (A) (B) (A) (B) (A) (B) (A)
                 (B) (B) (A) (B) (B) (A) (A) (A) (B) (A) (B) (A)
                 (B) (A) (B) (B) (A) (A) (B) (B) (A) (A) (A) (B)
                 (B) (A) (B) (A) (B) (A) (B) (B) (A) (A) (B) (B)
                 (A) (A) (B) (A) (B) (B) (A) (B) (A) (B) (A) (A)
                 (B) (B) (A) (B) (A) (B) (A) (A) (A) (B) (B) (B)
                 (B) (A) (B) (A) (A) (B) (A) (B) (A) (A) (B) (A)
                 (B) (B) (A) (A) (A) (B) (B) (A) (B) (A) (B) (B)
                 (A) (A) (B) (B) (B) (A) (A) (B) (A) (A) (B) (A)
                 (B) (A) (B) (B) (A) (A) (B) (A) (B) (A) (B) (B)
                 (A) (B) (A) (B) (A) (A) (B) (A) (A) (B) (B) (A)
                 (A) (B) (A) (B) (B) (A) (B) (A) (B) (B) (A) (A)
                 (A) (A) (B) (B) (A) (B) (A) (A) (B) (B) (A) (B)
                 (B) (A) (B) (A) (B) (B) (A) (A) (B) (A) (A) (B)
                 (B) (B) (A) (A) (B) (A) (B) (A) (B) (A) (B) (B)
                 (B) (B) (A) (A) (B) (A) (A) (B) (A) (B) (A) (A)
                 (B) (B) (A) (B) (A) (B) (A) (B) (A) (B) (A) (A)
                 (B) (B) (B) (A) (B) (A) (A) (B) (A) (A) (B) (A)
                 (B) (A) (B) (B) (A) (B) (A) (B) (A) (B) (A) (B)
                 (A) (B) (B) (A) (A) (B) (A) (B) (A) (B) (B) (A)
                 (B) (A) (B) (A) (B) (A) (A) (B) (B) (A) (A) (B)
                 (A) (B) (A) (B) (A) (B) (A) (B) (B) (A) (A) (B)
                 (A) (B) (A) (B) (B) (A) (B) (A) (B) (A) (B) (B)
                 (A) (A) (B) (B) (A) (A) (B) (B) (A) (A) (B) (A)
                 (A) (B) (A) (A) (B) (A) (B) (B) (A) (B) (A) (A)
                 (B) (A) (B) (B) (A) (B) (A) (A) (B) (B) (A) (A)
                 (B) (A) (B) (A) (B) (B) (A) (A) (B) (B) (A) (B)
                 (A) (A) (B) (A) (B) (A) (B) (B) (A) (B) (A) (A)
                 (B) (A) (B) (B) (A) (B) (A) (B) (A) (B) (B) (A)
                 (A) (A) (B) (B) (A) (A) (B) (A) (B) (A) (B) (A)
                 (A) (B) (B) (A) (B) (A) (B) (A) (B) (B) (A) (B)
                 (A) (A) (B) (B) (A) (A) (B) (B) (A) (A) (B) (B)
                 (A) (B) (A) (B) (A) (A) (B) (A) (B) (A) (B) (A)
                 (B) (A) (B) (A) (B) (A) (A) (B) (B) (A) (B) (A)
                 (B) (A) (B) (B) (A) (B) (A) (A) (B) (A) (B) (B)
                 (A) (A) (B) (A) (B) (B) (A) (A) (B) (B) (A) (A)
                 (B) (A) (B) (B) (A) (A) (B) (A) (A) (B) (B) (A)
                 (B) (B) (A) (A) (B) (B) (A) (A) (B) (B) (A) (B)
                 (A) (B) (B) (A) (A) (A) (B) (B) (A) (B) (A) (A)
                 (B) (A) (B) (B) (A) (B) (A) (B) (A) (B) (A) (A)
                 (B) (A) (B) (B) (A) (B) (A) (B) (B) (A) (B) (A)
                 (B) (A) (B) (A) (A) (B) (A) (B) (B) (A) (A) (B)
                 (B) (A) (A) (B) (A) (B) (A) (A)
 The electronic state of the initial guess is 1-A.
 Leave Link  401 at Thu Nov  9 12:44:15 2023, MaxMem=  6710886400 cpu:               1.0 elap:               0.4
 (Enter /mf/cheese/Gaussian/gdvj25p/gdv/l502.exe)
 Integral symmetry usage will be decided dynamically.
 Closed shell SCF:
 Using DIIS extrapolation, IDIIS=  1040.
 NGot=  6710886400 LenX=  6709277126 LenY=  6708730266
 Requested convergence on RMS density matrix=1.00D-08 within 128 cycles.
 Requested convergence on MAX density matrix=1.00D-06.
 Requested convergence on             energy=1.00D-06.
 No special actions if energy rises.
 Fock matrices will be formed incrementally for  20 cycles.

 Cycle   1  Pass 1  IDiag  1:
 FoFJK:  IHMeth= 1 ICntrl=       0 DoSepK=F KAlg= 0 I1Cent=           0 FoldK=F
 IRaf= 880000000 NMat=       1 IRICut=       1 DoRegI=T DoRafI=F ISym2E= 1 IDoP0=0 IntGTp=1.
 FoFCou: FMM=F IPFlag=           0 FMFlag=      100000 FMFlg1=           0
         NFxFlg=           0 DoJE=F BraDBF=F KetDBF=F FulRan=T
         wScrn=  0.000000 ICntrl=         0 IOpCl=  0 I1Cent=           0 NGrid=           0
         NMat0=    1 NMatS0=      1 NMatT0=    0 NMatD0=    1 NMtDS0=    0 NMtDT0=    0
 Petite list used in FoFCou.
 E= -2483.00739356283    
 DIIS: error= 3.81D-03 at cycle   1 NSaved=   1.
 NSaved= 1 IEnMin= 1 EnMin= -2483.00739356283     IErMin= 1 ErrMin= 3.81D-03
 ErrMax= 3.81D-03  0.00D+00 EMaxC= 1.00D-01 BMatC= 5.89D-03 BMatP= 5.89D-03
 Rises=F IDIUse=3 WtCom= 9.77D-01 WtEn= 2.35D-02
 Coeff-Com:  0.100D+01
 Coeff-En:   0.100D+01
 Coeff:      0.100D+01
 Gap=     0.150 Goal=   None    Shift=    0.000
 GapD=    0.150 DampG=1.000 DampE=1.000 DampFc=1.0000 IDamp=-1.
 RMSDP=2.46D-03 MaxDP=2.91D-01              OVMax= 6.21D-02

 Cycle   2  Pass 1  IDiag  1:
 RMSU=  2.40D-03    CP:  1.06D+00
 E= -2483.01366400720     Delta-E=       -0.006270444370 Rises=F Damp=F
 DIIS: error= 3.67D-03 at cycle   2 NSaved=   2.
 NSaved= 2 IEnMin= 2 EnMin= -2483.01366400720     IErMin= 2 ErrMin= 3.67D-03
 ErrMax= 3.67D-03  0.00D+00 EMaxC= 1.00D-01 BMatC= 8.80D-03 BMatP= 5.89D-03
 Rises=F IDIUse=3 WtCom= 1.42D-01 WtEn= 8.58D-01
 Coeff-Com:  0.559D+00 0.441D+00
 Coeff-En:   0.401D+00 0.599D+00
 Coeff:      0.423D+00 0.577D+00
 Gap=     0.176 Goal=   None    Shift=    0.000
 RMSDP=9.52D-04 MaxDP=8.95D-02 DE=-6.27D-03 OVMax= 3.97D-02

 Cycle   3  Pass 1  IDiag  1:
 RMSU=  3.91D-04    CP:  1.05D+00  6.44D-01
 E= -2483.02373638564     Delta-E=       -0.010072378445 Rises=F Damp=F
 DIIS: error= 2.97D-03 at cycle   3 NSaved=   3.
 NSaved= 3 IEnMin= 3 EnMin= -2483.02373638564     IErMin= 3 ErrMin= 2.97D-03
 ErrMax= 2.97D-03  0.00D+00 EMaxC= 1.00D-01 BMatC= 5.44D-03 BMatP= 5.89D-03
 Rises=F IDIUse=3 WtCom= 9.84D-01 WtEn= 1.62D-02
 Coeff-Com:  0.262D+00 0.389D+00 0.349D+00
 Coeff-En:   0.000D+00 0.317D+00 0.683D+00
 Coeff:      0.258D+00 0.388D+00 0.355D+00
 Gap=     0.161 Goal=   None    Shift=    0.000
 RMSDP=1.98D-04 MaxDP=1.96D-02 DE=-1.01D-02 OVMax= 2.49D-02

 Cycle   4  Pass 1  IDiag  1:
 RMSU=  1.06D-04    CP:  1.05D+00  6.97D-01  7.33D-01
 E= -2483.03019788500     Delta-E=       -0.006461499354 Rises=F Damp=F
 DIIS: error= 1.34D-03 at cycle   4 NSaved=   4.
 NSaved= 4 IEnMin= 4 EnMin= -2483.03019788500     IErMin= 4 ErrMin= 1.34D-03
 ErrMax= 1.34D-03  0.00D+00 EMaxC= 1.00D-01 BMatC= 1.06D-03 BMatP= 5.44D-03
 Rises=F IDIUse=3 WtCom= 9.95D-01 WtEn= 4.92D-03
 Coeff-Com:  0.162D+00 0.277D+00 0.298D+00 0.263D+00
 Coeff-En:   0.000D+00 0.000D+00 0.793D-01 0.921D+00
 Coeff:      0.161D+00 0.276D+00 0.297D+00 0.266D+00
 Gap=     0.167 Goal=   None    Shift=    0.000
 RMSDP=6.47D-05 MaxDP=5.43D-03 DE=-6.46D-03 OVMax= 7.67D-03

 Cycle   5  Pass 1  IDiag  1:
 RMSU=  4.94D-05    CP:  1.05D+00  6.93D-01  7.49D-01  6.29D-01
 E= -2483.03102112129     Delta-E=       -0.000823236299 Rises=F Damp=F
 DIIS: error= 4.77D-04 at cycle   5 NSaved=   5.
 NSaved= 5 IEnMin= 5 EnMin= -2483.03102112129     IErMin= 5 ErrMin= 4.77D-04
 ErrMax= 4.77D-04  0.00D+00 EMaxC= 1.00D-01 BMatC= 1.54D-04 BMatP= 1.06D-03
 Rises=F IDIUse=3 WtCom= 9.99D-01 WtEn= 1.04D-03
 Coeff-Com:  0.520D-01 0.103D+00 0.134D+00 0.246D+00 0.464D+00
 Coeff-En:   0.000D+00 0.000D+00 0.000D+00 0.181D+00 0.819D+00
 Coeff:      0.520D-01 0.103D+00 0.134D+00 0.246D+00 0.465D+00
 Gap=     0.165 Goal=   None    Shift=    0.000
 RMSDP=2.72D-05 MaxDP=2.76D-03 DE=-8.23D-04 OVMax= 2.25D-03

 Cycle   6  Pass 1  IDiag  1:
 RMSU=  2.42D-05    CP:  1.05D+00  6.89D-01  7.57D-01  6.43D-01  8.36D-01
 E= -2483.03114419871     Delta-E=       -0.000123077420 Rises=F Damp=F
 DIIS: error= 1.22D-04 at cycle   6 NSaved=   6.
 NSaved= 6 IEnMin= 6 EnMin= -2483.03114419871     IErMin= 6 ErrMin= 1.22D-04
 ErrMax= 1.22D-04  0.00D+00 EMaxC= 1.00D-01 BMatC= 1.30D-05 BMatP= 1.54D-04
 Rises=F IDIUse=3 WtCom= 1.00D+00 WtEn= 1.06D-04
 Coeff-Com:  0.997D-02 0.251D-01 0.362D-01 0.116D+00 0.293D+00 0.520D+00
 Coeff-En:   0.000D+00 0.000D+00 0.000D+00 0.000D+00 0.115D+00 0.885D+00
 Coeff:      0.997D-02 0.251D-01 0.362D-01 0.116D+00 0.293D+00 0.520D+00
 Gap=     0.166 Goal=   None    Shift=    0.000
 RMSDP=1.13D-05 MaxDP=5.39D-04 DE=-1.23D-04 OVMax= 1.47D-03

 Cycle   7  Pass 1  IDiag  1:
 RMSU=  9.68D-06    CP:  1.05D+00  6.89D-01  7.57D-01  6.56D-01  8.82D-01
                    CP:  8.01D-01
 E= -2483.03115775451     Delta-E=       -0.000013555798 Rises=F Damp=F
 DIIS: error= 7.15D-05 at cycle   7 NSaved=   7.
 NSaved= 7 IEnMin= 7 EnMin= -2483.03115775451     IErMin= 7 ErrMin= 7.15D-05
 ErrMax= 7.15D-05  0.00D+00 EMaxC= 1.00D-01 BMatC= 3.56D-06 BMatP= 1.30D-05
 Rises=F IDIUse=1 WtCom= 1.00D+00 WtEn= 0.00D+00
 Coeff-Com:  0.767D-03 0.378D-02 0.430D-02 0.437D-01 0.120D+00 0.375D+00
 Coeff-Com:  0.453D+00
 Coeff:      0.767D-03 0.378D-02 0.430D-02 0.437D-01 0.120D+00 0.375D+00
 Coeff:      0.453D+00
 Gap=     0.165 Goal=   None    Shift=    0.000
 RMSDP=5.27D-06 MaxDP=4.65D-04 DE=-1.36D-05 OVMax= 6.01D-04

 Cycle   8  Pass 1  IDiag  1:
 RMSU=  3.45D-06    CP:  1.05D+00  6.89D-01  7.59D-01  6.73D-01  8.53D-01
                    CP:  7.52D-01  7.16D-01
 E= -2483.03116287721     Delta-E=       -0.000005122698 Rises=F Damp=F
 DIIS: error= 1.17D-05 at cycle   8 NSaved=   8.
 NSaved= 8 IEnMin= 8 EnMin= -2483.03116287721     IErMin= 8 ErrMin= 1.17D-05
 ErrMax= 1.17D-05  0.00D+00 EMaxC= 1.00D-01 BMatC= 1.65D-07 BMatP= 3.56D-06
 Rises=F IDIUse=1 WtCom= 1.00D+00 WtEn= 0.00D+00
 Coeff-Com: -0.839D-03-0.103D-02-0.248D-02 0.615D-02 0.206D-01 0.123D+00
 Coeff-Com:  0.237D+00 0.617D+00
 Coeff:     -0.839D-03-0.103D-02-0.248D-02 0.615D-02 0.206D-01 0.123D+00
 Coeff:      0.237D+00 0.617D+00
 Gap=     0.165 Goal=   None    Shift=    0.000
 RMSDP=1.37D-06 MaxDP=8.32D-05 DE=-5.12D-06 OVMax= 1.32D-04

 Cycle   9  Pass 1  IDiag  1:
 RMSU=  1.10D-06    CP:  1.05D+00  6.89D-01  7.59D-01  6.72D-01  8.60D-01
                    CP:  7.71D-01  7.31D-01  8.60D-01
 E= -2483.03116313621     Delta-E=       -0.000000258994 Rises=F Damp=F
 DIIS: error= 6.26D-06 at cycle   9 NSaved=   9.
 NSaved= 9 IEnMin= 9 EnMin= -2483.03116313621     IErMin= 9 ErrMin= 6.26D-06
 ErrMax= 6.26D-06  0.00D+00 EMaxC= 1.00D-01 BMatC= 3.87D-08 BMatP= 1.65D-07
 Rises=F IDIUse=1 WtCom= 1.00D+00 WtEn= 0.00D+00
 Coeff-Com: -0.433D-03-0.703D-03-0.141D-02-0.314D-03 0.340D-02 0.422D-01
 Coeff-Com:  0.108D+00 0.378D+00 0.471D+00
 Coeff:     -0.433D-03-0.703D-03-0.141D-02-0.314D-03 0.340D-02 0.422D-01
 Coeff:      0.108D+00 0.378D+00 0.471D+00
 Gap=     0.165 Goal=   None    Shift=    0.000
 RMSDP=5.48D-07 MaxDP=2.12D-05 DE=-2.59D-07 OVMax= 8.95D-05

 Cycle  10  Pass 1  IDiag  1:
 RMSU=  4.28D-07    CP:  1.05D+00  6.89D-01  7.59D-01  6.72D-01  8.61D-01
                    CP:  7.73D-01  7.48D-01  8.95D-01  7.64D-01
 E= -2483.03116319165     Delta-E=       -0.000000055446 Rises=F Damp=F
 DIIS: error= 3.50D-06 at cycle  10 NSaved=  10.
 NSaved=10 IEnMin=10 EnMin= -2483.03116319165     IErMin=10 ErrMin= 3.50D-06
 ErrMax= 3.50D-06  0.00D+00 EMaxC= 1.00D-01 BMatC= 9.17D-09 BMatP= 3.87D-08
 Rises=F IDIUse=1 WtCom= 1.00D+00 WtEn= 0.00D+00
 Coeff-Com: -0.140D-03-0.279D-03-0.270D-03-0.163D-02-0.126D-02 0.242D-02
 Coeff-Com:  0.245D-01 0.126D+00 0.331D+00 0.520D+00
 Coeff:     -0.140D-03-0.279D-03-0.270D-03-0.163D-02-0.126D-02 0.242D-02
 Coeff:      0.245D-01 0.126D+00 0.331D+00 0.520D+00
 Gap=     0.165 Goal=   None    Shift=    0.000
 RMSDP=3.36D-07 MaxDP=3.24D-05 DE=-5.54D-08 OVMax= 5.07D-05

 Cycle  11  Pass 1  IDiag  1:
 RMSU=  2.33D-07    CP:  1.05D+00  6.89D-01  7.59D-01  6.71D-01  8.63D-01
                    CP:  7.75D-01  7.58D-01  9.02D-01  8.43D-01  9.09D-01
 E= -2483.03116321459     Delta-E=       -0.000000022937 Rises=F Damp=F
 DIIS: error= 1.78D-06 at cycle  11 NSaved=  11.
 NSaved=11 IEnMin=11 EnMin= -2483.03116321459     IErMin=11 ErrMin= 1.78D-06
 ErrMax= 1.78D-06  0.00D+00 EMaxC= 1.00D-01 BMatC= 9.42D-10 BMatP= 9.17D-09
 Rises=F IDIUse=1 WtCom= 1.00D+00 WtEn= 0.00D+00
 Coeff-Com:  0.406D-04 0.646D-05 0.244D-03-0.561D-03-0.218D-02-0.118D-01
 Coeff-Com: -0.201D-01-0.576D-01-0.280D-03 0.201D+00 0.892D+00
 Coeff:      0.406D-04 0.646D-05 0.244D-03-0.561D-03-0.218D-02-0.118D-01
 Coeff:     -0.201D-01-0.576D-01-0.280D-03 0.201D+00 0.892D+00
 Gap=     0.165 Goal=   None    Shift=    0.000
 RMSDP=2.34D-07 MaxDP=1.78D-05 DE=-2.29D-08 OVMax= 6.54D-05

 Cycle  12  Pass 1  IDiag  1:
 RMSU=  1.16D-07    CP:  1.05D+00  6.89D-01  7.59D-01  6.71D-01  8.63D-01
                    CP:  7.74D-01  7.63D-01  9.20D-01  9.11D-01  1.19D+00
                    CP:  1.45D+00
 E= -2483.03116322458     Delta-E=       -0.000000009996 Rises=F Damp=F
 DIIS: error= 9.76D-07 at cycle  12 NSaved=  12.
 NSaved=12 IEnMin=12 EnMin= -2483.03116322458     IErMin=12 ErrMin= 9.76D-07
 ErrMax= 9.76D-07  0.00D+00 EMaxC= 1.00D-01 BMatC= 3.37D-10 BMatP= 9.42D-10
 Rises=F IDIUse=1 WtCom= 1.00D+00 WtEn= 0.00D+00
 Coeff-Com:  0.598D-04 0.769D-04 0.158D-03 0.263D-03-0.686D-03-0.634D-02
 Coeff-Com: -0.172D-01-0.681D-01-0.109D+00-0.600D-01 0.471D+00 0.789D+00
 Coeff:      0.598D-04 0.769D-04 0.158D-03 0.263D-03-0.686D-03-0.634D-02
 Coeff:     -0.172D-01-0.681D-01-0.109D+00-0.600D-01 0.471D+00 0.789D+00
 Gap=     0.165 Goal=   None    Shift=    0.000
 RMSDP=1.59D-07 MaxDP=1.23D-05 DE=-1.00D-08 OVMax= 4.43D-05

 Cycle  13  Pass 1  IDiag  1:
 RMSU=  7.13D-08    CP:  1.05D+00  6.89D-01  7.59D-01  6.71D-01  8.63D-01
                    CP:  7.74D-01  7.64D-01  9.27D-01  9.63D-01  1.36D+00
                    CP:  1.82D+00  1.40D+00
 E= -2483.03116322802     Delta-E=       -0.000000003436 Rises=F Damp=F
 DIIS: error= 5.34D-07 at cycle  13 NSaved=  13.
 NSaved=13 IEnMin=13 EnMin= -2483.03116322802     IErMin=13 ErrMin= 5.34D-07
 ErrMax= 5.34D-07  0.00D+00 EMaxC= 1.00D-01 BMatC= 1.17D-10 BMatP= 3.37D-10
 Rises=F IDIUse=1 WtCom= 1.00D+00 WtEn= 0.00D+00
 Coeff-Com:  0.283D-04 0.617D-04 0.139D-04 0.273D-03 0.469D-03 0.121D-03
 Coeff-Com: -0.372D-02-0.207D-01-0.651D-01-0.937D-01-0.216D-01 0.425D+00
 Coeff-Com:  0.779D+00
 Coeff:      0.283D-04 0.617D-04 0.139D-04 0.273D-03 0.469D-03 0.121D-03
 Coeff:     -0.372D-02-0.207D-01-0.651D-01-0.937D-01-0.216D-01 0.425D+00
 Coeff:      0.779D+00
 Gap=     0.165 Goal=   None    Shift=    0.000
 RMSDP=9.39D-08 MaxDP=7.25D-06 DE=-3.44D-09 OVMax= 2.50D-05

 Cycle  14  Pass 1  IDiag  1:
 RMSU=  2.96D-08    CP:  1.05D+00  6.89D-01  7.59D-01  6.71D-01  8.64D-01
                    CP:  7.75D-01  7.65D-01  9.28D-01  9.88D-01  1.46D+00
                    CP:  2.05D+00  1.72D+00  1.15D+00
 E= -2483.03116322891     Delta-E=       -0.000000000892 Rises=F Damp=F
 DIIS: error= 1.44D-07 at cycle  14 NSaved=  14.
 NSaved=14 IEnMin=14 EnMin= -2483.03116322891     IErMin=14 ErrMin= 1.44D-07
 ErrMax= 1.44D-07  0.00D+00 EMaxC= 1.00D-01 BMatC= 2.66D-11 BMatP= 1.17D-10
 Rises=F IDIUse=1 WtCom= 1.00D+00 WtEn= 0.00D+00
 Coeff-Com:  0.414D-05 0.242D-04-0.256D-04 0.115D-03 0.449D-03 0.151D-02
 Coeff-Com:  0.142D-02 0.266D-02-0.164D-01-0.421D-01-0.114D+00 0.789D-01
 Coeff-Com:  0.453D+00 0.635D+00
 Coeff:      0.414D-05 0.242D-04-0.256D-04 0.115D-03 0.449D-03 0.151D-02
 Coeff:      0.142D-02 0.266D-02-0.164D-01-0.421D-01-0.114D+00 0.789D-01
 Coeff:      0.453D+00 0.635D+00
 Gap=     0.165 Goal=   None    Shift=    0.000
 RMSDP=3.69D-08 MaxDP=2.37D-06 DE=-8.92D-10 OVMax= 7.33D-06

 Cycle  15  Pass 1  IDiag  1:
 RMSU=  1.48D-08    CP:  1.05D+00  6.89D-01  7.59D-01  6.71D-01  8.64D-01
                    CP:  7.75D-01  7.65D-01  9.30D-01  9.89D-01  1.49D+00
                    CP:  2.13D+00  1.85D+00  1.32D+00  9.13D-01
 E= -2483.03116322902     Delta-E=       -0.000000000113 Rises=F Damp=F
 DIIS: error= 5.58D-08 at cycle  15 NSaved=  15.
 NSaved=15 IEnMin=15 EnMin= -2483.03116322902     IErMin=15 ErrMin= 5.58D-08
 ErrMax= 5.58D-08  0.00D+00 EMaxC= 1.00D-01 BMatC= 3.08D-12 BMatP= 2.66D-11
 Rises=F IDIUse=1 WtCom= 1.00D+00 WtEn= 0.00D+00
 Coeff-Com: -0.338D-05-0.173D-05-0.854D-05 0.951D-06 0.301D-04 0.478D-03
 Coeff-Com:  0.114D-02 0.502D-02 0.747D-02 0.472D-02-0.344D-01-0.577D-01
 Coeff-Com:  0.365D-02 0.227D+00 0.843D+00
 Coeff:     -0.338D-05-0.173D-05-0.854D-05 0.951D-06 0.301D-04 0.478D-03
 Coeff:      0.114D-02 0.502D-02 0.747D-02 0.472D-02-0.344D-01-0.577D-01
 Coeff:      0.365D-02 0.227D+00 0.843D+00
 Gap=     0.165 Goal=   None    Shift=    0.000
 RMSDP=1.19D-08 MaxDP=8.07D-07 DE=-1.13D-10 OVMax= 2.36D-06

 Cycle  16  Pass 1  IDiag  1:
 RMSU=  4.51D-09    CP:  1.05D+00  6.89D-01  7.59D-01  6.71D-01  8.64D-01
                    CP:  7.75D-01  7.65D-01  9.30D-01  9.91D-01  1.50D+00
                    CP:  2.15D+00  1.89D+00  1.36D+00  1.04D+00  9.77D-01
 E= -2483.03116322905     Delta-E=       -0.000000000021 Rises=F Damp=F
 DIIS: error= 2.61D-08 at cycle  16 NSaved=  16.
 NSaved=16 IEnMin=16 EnMin= -2483.03116322905     IErMin=16 ErrMin= 2.61D-08
 ErrMax= 2.61D-08  0.00D+00 EMaxC= 1.00D-01 BMatC= 4.69D-13 BMatP= 3.08D-12
 Rises=F IDIUse=1 WtCom= 1.00D+00 WtEn= 0.00D+00
 Coeff-Com: -0.200D-05-0.345D-05-0.144D-05-0.142D-04-0.326D-04 0.563D-04
 Coeff-Com:  0.379D-03 0.196D-02 0.507D-02 0.615D-02-0.529D-02-0.353D-01
 Coeff-Com: -0.410D-01 0.477D-01 0.417D+00 0.603D+00
 Coeff:     -0.200D-05-0.345D-05-0.144D-05-0.142D-04-0.326D-04 0.563D-04
 Coeff:      0.379D-03 0.196D-02 0.507D-02 0.615D-02-0.529D-02-0.353D-01
 Coeff:     -0.410D-01 0.477D-01 0.417D+00 0.603D+00
 Gap=     0.165 Goal=   None    Shift=    0.000
 RMSDP=3.59D-09 MaxDP=2.15D-07 DE=-2.09D-11 OVMax= 4.01D-07

 SCF Done:  E(RB3LYP) =  -2483.03116323     A.U. after   16 cycles
            NFock= 16  Conv=0.36D-08     -V/T= 2.0021
 KE=        2477.924127 PE=      -10948.059978 EE=        3463.067474
 Leave Link  502 at Thu Nov  9 12:46:59 2023, MaxMem=  6710886400 cpu:            1290.2 elap:             163.9
 (Enter /mf/cheese/Gaussian/gdvj25p/gdv/l801.exe)
 DoSCS=F DFT=T ScalE2(SS,OS)=  1.000000  1.000000
 Range of M.O.s used for correlation:     1   685
 NBasis=   689 NAE=    89 NBE=    89 NFC=     0 NFV=     0
 NROrb=    685 NOA=    89 NOB=    89 NVA=   596 NVB=   596

 **** Warning!!: The largest alpha MO coefficient is  0.44513104D+02

 Leave Link  801 at Thu Nov  9 12:46:59 2023, MaxMem=  6710886400 cpu:               0.0 elap:               0.0
 (Enter /mf/cheese/Gaussian/gdvj25p/gdv/l1002.exe)
 Minotr:  Closed shell wavefunction.
          Direct CPHF calculation.
          Differentiating once with respect to electric field.
                with respect to dipole field.
                with respect to quadrupole field.
          Differentiating once with respect to magnetic field using GIAOs.
          Electric field/nuclear overlap derivatives assumed to be zero.
          Requested convergence is 1.0D-08 RMS, and 1.0D-07 maximum.
          Secondary convergence is 1.0D-12 RMS, and 1.0D-12 maximum.
          NewPWx=F KeepS1=T KeepF1=T KeepIn=T MapXYZ=F SortEE=F KeepMc=T.
        10555 words used for storage of precomputed grid.
 Two-electron integral symmetry used by symmetrizing perturbed Fock matrices.
          MDV=    6710886400 using IRadAn=       3.
          Solving linear equations simultaneously, MaxMat=     384.
          Doing perturbations at frequencies    0.085969
 FoFCou: FMM=F IPFlag=           0 FMFlag=      100000 FMFlg1=           0
         NFxFlg=           0 DoJE=F BraDBF=F KetDBF=T FulRan=T
         wScrn=  0.000000 ICntrl=      6100 IOpCl=  0 I1Cent=           7 NGrid=          33
         NMat0=    1 NMatS0=      1 NMatT0=    0 NMatD0=    1 NMtDS0=    0 NMtDT0=    0
 Symmetry not used in FoFCou.
 FoFJK:  IHMeth= 1 ICntrl=    6127 DoSepK=F KAlg= 0 I1Cent=           0 FoldK=F
 IRaf=         1 NMat=       1 IRICut=       1 DoRegI=T DoRafI=F ISym2E= 0 IDoP0=0 IntGTp=1.
 CalDSu exits because no D1Ps are significant.
          There are    12 degrees of freedom in the 1st order CPHF.  IDoFFX=0 NUNeed=    12.
     11 vectors produced by pass  0 Test12= 8.84D-13 8.33D-09 XBig12= 1.00D+00 3.42D-01.
 AX will form    11 AO Fock derivatives at one time.
     11 vectors produced by pass  1 Test12= 8.84D-13 8.33D-09 XBig12= 5.85D-01 1.41D-01.
     11 vectors produced by pass  2 Test12= 8.84D-13 8.33D-09 XBig12= 7.63D-01 2.26D-01.
     11 vectors produced by pass  3 Test12= 8.84D-13 8.33D-09 XBig12= 9.21D-01 1.64D-01.
     11 vectors produced by pass  4 Test12= 8.84D-13 8.33D-09 XBig12= 1.88D-01 9.44D-02.
     11 vectors produced by pass  5 Test12= 8.84D-13 8.33D-09 XBig12= 2.32D-02 4.15D-02.
     11 vectors produced by pass  6 Test12= 8.84D-13 8.33D-09 XBig12= 3.90D-03 1.20D-02.
     11 vectors produced by pass  7 Test12= 8.84D-13 8.33D-09 XBig12= 5.66D-04 4.32D-03.
     11 vectors produced by pass  8 Test12= 8.84D-13 8.33D-09 XBig12= 3.95D-05 1.47D-03.
     11 vectors produced by pass  9 Test12= 8.84D-13 8.33D-09 XBig12= 2.84D-06 3.67D-04.
     11 vectors produced by pass 10 Test12= 8.84D-13 8.33D-09 XBig12= 1.82D-07 8.87D-05.
     11 vectors produced by pass 11 Test12= 8.84D-13 8.33D-09 XBig12= 1.09D-08 1.64D-05.
     11 vectors produced by pass 12 Test12= 8.84D-13 8.33D-09 XBig12= 5.65D-10 4.23D-06.
     10 vectors produced by pass 13 Test12= 8.84D-13 8.33D-09 XBig12= 1.62D-11 6.03D-07.
      5 vectors produced by pass 14 Test12= 8.84D-13 8.33D-09 XBig12= 4.79D-13 1.17D-07.
      2 vectors produced by pass 15 Test12= 8.84D-13 8.33D-09 XBig12= 1.58D-14 2.38D-08.
 InvSVY:  IOpt=1 It=  1 EMax= 7.11D-14
 Solved reduced A of dimension   160 with    12 vectors.
 FullF1:  Do perturbations      1 to      12.
 CPHF1 test IX=  1 alpha ErrMax= 7.58D-08 IMax=   28 JMax=   90
 CPHF1 test IX=  2 alpha ErrMax= 6.47D-07 IMax=   10 JMax=  676
 CPHF1 test IX=  3 alpha ErrMax= 3.27D-08 IMax=    4 JMax=  672
 CPHF1 test IX=  4 alpha ErrMax= 2.12D-07 IMax=   21 JMax=  482
 CPHF1 test IX=  5 alpha ErrMax= 9.74D-08 IMax=   21 JMax=  482
 CPHF1 test IX=  6 alpha ErrMax= 1.16D-07 IMax=   21 JMax=  482
 CPHF1 test IX=  7 alpha ErrMax= 5.53D-08 IMax=   25 JMax=  663
 CPHF1 test IX=  8 alpha ErrMax= 5.49D-07 IMax=   10 JMax=  676
 CPHF1 test IX=  9 alpha ErrMax= 9.67D-07 IMax=   10 JMax=  676
 CPHF1 test IX= 10 alpha ErrMax= 1.96D-06 IMax=   10 JMax=  676
 CPHF1 test IX= 11 alpha ErrMax= 7.39D-07 IMax=  676 JMax=   10
 CPHF1 test IX= 12 alpha ErrMax= 4.42D-07 IMax=   21 JMax=  482

 Dipole polarizability for W=    0.085969 iGamma=0.0040
  (real):
                 1             2             3 
      1   0.176441D+03  0.199043D+02  0.000000D+00
      2   0.199043D+02  0.261933D+03  0.000000D+00
      3   0.000000D+00  0.000000D+00  0.191898D+03
  (imaginary):
                 1             2             3 
      1   0.160735D+01 -0.715227D+00  0.000000D+00
      2  -0.715227D+00  0.226705D+02  0.000000D+00
      3   0.000000D+00  0.000000D+00  0.128522D+01
 Isotropic polarizability (real) for W= 0.085969 iGamma=0.0040      210.091 Bohr**3.
 Isotropic polarizability (imag) for W= 0.085969 iGamma=0.0040        8.521 Bohr**3.
 Dipole-quadrupole polarizability for W=    0.085969 iGamma=0.0040
  (real):
                 1             2             3 
      1   0.000000D+00  0.000000D+00 -0.313426D+02
      2   0.000000D+00  0.000000D+00  0.148882D+03
      3   0.000000D+00  0.000000D+00 -0.117540D+03
      4   0.000000D+00  0.000000D+00 -0.113222D+03
      5  -0.723872D+02 -0.101633D+03  0.000000D+00
      6  -0.105950D+03  0.127546D+03  0.000000D+00
  (imaginary):
                 1             2             3 
      1   0.000000D+00  0.000000D+00 -0.137833D+01
      2   0.000000D+00  0.000000D+00  0.182636D+01
      3   0.000000D+00  0.000000D+00 -0.448036D+00
      4   0.000000D+00  0.000000D+00 -0.208716D+01
      5   0.579283D+00 -0.189055D+02  0.000000D+00
      6  -0.341481D+01  0.339811D+02  0.000000D+00
 Dipole-magnetic dipole polarizability for W=    0.085969:
  (real):
                 1             2             3 
      1  -0.253656D+02  0.697335D+03  0.000000D+00
      2  -0.569220D+02  0.128968D+01  0.000000D+00
      3   0.000000D+00  0.000000D+00 -0.174830D+02
  (imaginary):
                 1             2             3 
      1   0.103563D+02  0.793118D+01  0.000000D+00
      2  -0.794281D+02  0.158999D+02  0.000000D+00
      3   0.000000D+00  0.000000D+00 -0.266124D+02
 DQ contribution to OR G for W=    0.085969:
  (real):
                 1             2             3 
      1   0.168184D+02 -0.321548D+02  0.000000D+00
      2   0.195761D+01 -0.132765D+01  0.000000D+00
      3   0.000000D+00  0.000000D+00 -0.154907D+02
  (imaginary):
                 1             2             3 
      1   0.115895D+02 -0.213365D+02  0.000000D+00
      2   0.410446D+02 -0.727206D+01  0.000000D+00
      3   0.000000D+00  0.000000D+00 -0.431745D+01
 Optical Rotation G' tensor for W=    0.085969:
  (real):
                 1             2             3 
      1  -0.389208D+01 -0.163878D+03  0.000000D+00
      2  -0.163878D+03 -0.217562D+02  0.000000D+00
      3   0.000000D+00  0.000000D+00 -0.159107D+02
  (imaginary):
                 1             2             3 
      1  -0.245888D+01  0.203377D+02  0.000000D+00
      2   0.203377D+02 -0.994608D+01  0.000000D+00
      3   0.000000D+00  0.000000D+00  0.120487D+02
 OR G Eigenvalues:   -26.8819    12.0487    14.4769  Iso=     0.1187
 Eigenvectors:
   (1)  -0.639910   0.768450   0.000000
   (2)   0.000000   0.000000   1.000000
   (3)   0.768450   0.639910   0.000000
 w=    0.085969 a.u., Optical Rotation Beta=      0.1187 au.
 Molar Mass =    347.1466 grams/mole, [Alpha] ( 5300.0 A) =       16.34 deg.
 w=    0.085969 a.u., Elipticity Beta=    -13.8530 au.
 Molar Elipticity ( 5300.0 A) = -0.661972D+04 deg cm**2/dmol
 DeltaEpsilon     ( 5300.0 A) = -0.200670D+01 L/(mol cm)
 PxScal for PaGxPb-FJK:  IOpCl= 0 ISclPx=1 IMOff=     1 NMtTot=    50 NTT=  237705 ScalPx= 1.99D+02
 PxSclF for G(T1ab):  NSpBlk= 1 ISclPx=1 IMOff=     0 NMtTot=    72 NTT=  475410 IRwP= 199996      0 IPTmp= 199977      0 ScalPx= 1.44D+04
 FullF1:  Do perturbations      1 to      30.
          There are    36 degrees of freedom in the 2nd order CPHF.
     33 vectors produced by pass  0 Test12= 2.95D-13 2.78D-09 XBig12= 1.00D+00 2.94D-01.
     33 vectors produced by pass  1 Test12= 2.95D-13 2.78D-09 XBig12= 9.57D-01 2.56D-01.
     33 vectors produced by pass  2 Test12= 2.95D-13 2.78D-09 XBig12= 2.74D-02 4.52D-02.
     33 vectors produced by pass  3 Test12= 2.95D-13 2.78D-09 XBig12= 1.72D-03 6.24D-03.
     33 vectors produced by pass  4 Test12= 2.95D-13 2.78D-09 XBig12= 5.85D-05 9.09D-04.
     33 vectors produced by pass  5 Test12= 2.95D-13 2.78D-09 XBig12= 1.49D-06 1.56D-04.
     33 vectors produced by pass  6 Test12= 2.95D-13 2.78D-09 XBig12= 2.79D-08 1.85D-05.
     32 vectors produced by pass  7 Test12= 2.95D-13 2.78D-09 XBig12= 4.42D-10 2.18D-06.
     30 vectors produced by pass  8 Test12= 2.95D-13 2.78D-09 XBig12= 5.06D-12 2.48D-07.
     14 vectors produced by pass  9 Test12= 2.95D-13 2.78D-09 XBig12= 3.80D-14 2.07D-08.
 InvSVY:  IOpt=1 It=  1 EMax= 1.59D-12
 Solved reduced A of dimension   307 with    36 vectors.
 PxScal for FxTab-FJK:  IOpCl= 0 ISclPx=1 IMOff=     0 NMtTot=    60 NTT=  237705 ScalPx= 1.88D+04
 PxScal for FxTab-XC:  IOpCl= 0 ISclPx=1 IMOff=     0 NMtTot=    60 NTT=  237705 ScalPx= 1.88D+04
 PxSclF for G(Xab):  NSpBlk= 1 ISclPx=1 IMOff=     0 NMtTot=    72 NTT=  475410 IRwP= 199978      0 IPTmp= 199973      0 ScalPx= 1.87D+04
 FullF1:  Do perturbations      1 to      30.
 End of Minotr FD prop file    721 Mask=       B NFrqRd=     1 NDeriv=     1 ND12= 1 NRID=2 LenFil=      81:
 Frequencies=    0.085969
 Gamma=    0.004000
 Property number 1 -- Alpha(-w,w) frequency  1    0.085969:
  (real):
                 1             2             3 
      1   0.176441D+03  0.199043D+02  0.000000D+00
      2   0.199043D+02  0.261933D+03  0.000000D+00
      3   0.000000D+00  0.000000D+00  0.191898D+03
  (imaginary):
                 1             2             3 
      1   0.160735D+01 -0.715227D+00  0.000000D+00
      2  -0.715227D+00  0.226705D+02  0.000000D+00
      3   0.000000D+00  0.000000D+00  0.128522D+01
 Property number 2 -- FD Optical Rotation Tensor frequency  1    0.085969:
  (real):
                 1             2             3 
      1  -0.253656D+02  0.697335D+03  0.000000D+00
      2  -0.569220D+02  0.128968D+01  0.000000D+00
      3   0.000000D+00  0.000000D+00 -0.174830D+02
  (imaginary):
                 1             2             3 
      1   0.103563D+02  0.793118D+01  0.000000D+00
      2  -0.794281D+02  0.158999D+02  0.000000D+00
      3   0.000000D+00  0.000000D+00 -0.266124D+02
 Property number 4 -- D-Q polarizability frequency  1    0.085969:
  (real):
                 1             2             3 
      1   0.000000D+00  0.000000D+00 -0.313426D+02
      2   0.000000D+00  0.000000D+00  0.148882D+03
      3   0.000000D+00  0.000000D+00 -0.117540D+03
      4   0.000000D+00  0.000000D+00 -0.113222D+03
      5  -0.723872D+02 -0.101633D+03  0.000000D+00
      6  -0.105950D+03  0.127546D+03  0.000000D+00
  (imaginary):
                 1             2             3 
      1   0.000000D+00  0.000000D+00 -0.137833D+01
      2   0.000000D+00  0.000000D+00  0.182636D+01
      3   0.000000D+00  0.000000D+00 -0.448036D+00
      4   0.000000D+00  0.000000D+00 -0.208716D+01
      5   0.579283D+00 -0.189055D+02  0.000000D+00
[...]
 0073556,-0.00120793,0.00004504,0.00022440,0.00000803,-0.00983511,0.000
 96940,0.00096470,-0.00010803,0.00079641,-0.00025249,0.00000749,-0.0000
 0843,0.00001096,0.00041917,-0.00072519,0.00090089,0.00241044,0.0008611
 0,-0.00065462,-0.00000909,-0.00005091,0.00001218,-0.00002088,-0.000034
 07,0.00000490,0.00006842,0.00032253,-0.00021066,0.43244631,0.01196012,
 0.00026610,-0.00041387,-0.00337774,-0.00014225,0.00065950,0.00059093,0
 .00072116,-0.00017064,-0.00010477,0.00001214,-0.00020639,0.00035082,-0
 .00048292,-0.00014981,-0.00042691,-0.00002102,0.00060553,-0.00023752,-
 0.00175488,-0.00103467,-0.00118012,0.00245781,0.00106808,0.00015528,0.
 00080776,-0.00057513,0.03123605,-0.04949656,0.01048338,0.00002612,-0.0
 0034436,-0.00017547,0.00185307,-0.00599758,0.00003015,-0.00036828,-0.0
 0192045,0.00069453,0.00018823,0.00048597,0.00063958,-0.00037712,0.0009
 9717,-0.00037623,-0.03489995,0.00095363,0.00486105,0.00014755,0.000014
 67,0.00010813,-0.00000807,-0.00001646,0.00003024,0.00027999,0.00004498
 ,-0.00056332,-0.00060136,0.00069799,0.00009696,-0.00052208,-0.00014098
 ,0.00015222,0.00009715,-0.00058693,0.00120064,-0.00024179,-0.00045507,
 0.00032910,0.01078242,0.00014502,-0.00253838,0.00105780,0.00011458,0.0
 0007439,-0.00002598,0.00000348,0.00004209,0.00055959,-0.00040143,0.000
 03185,-0.00094435,0.00218103,-0.00047739,-0.00000101,-0.00009143,-0.00
 008917,-0.00007882,-0.00004774,-0.00004457,-0.00030083,-0.00035272,-0.
 00031774,-0.01553407,0.05233121,0.01343204,-0.00053642,-0.00052395,0.0
 0156746,0.00017477,-0.00028605,0.00032750,0.00034673,-0.00012875,0.000
 28643,-0.00003227,0.00070282,0.00035534,-0.00046393,-0.00017586,-0.000
 80941,0.00030611,0.00121685,-0.00030553,-0.00181172,-0.00084643,-0.001
 04928,0.00165759,0.00079716,0.00046758,-0.00031877,-0.00050876,0.03687
 136,0.01105778,-0.04719974,0.00004161,-0.00002969,-0.00020766,0.000279
 96,0.00286564,-0.00032093,-0.00029434,-0.00079848,0.00049857,-0.000180
 76,0.00064501,-0.00274671,-0.00038958,0.00092989,-0.00036125,0.0099445
 8,-0.00288665,-0.00225785,0.00005838,0.00006634,0.00003954,-0.00001025
 ,-0.00001598,0.00002759,-0.00031122,-0.00016195,0.00009953,-0.00000072
 ,-0.00055075,0.00128864,0.00022456,0.00017843,-0.00003126,-0.00238483,
 0.00268495,-0.00506908,0.00021241,0.00046852,0.00017599,-0.03629803,0.
 00059389,-0.00180218,-0.00011482,-0.00054581,0.00015498,-0.00001216,-0
 .00000371,0.00002809,-0.00026796,0.00054855,0.00017670,0.00080841,-0.0
 0001766,0.00035423,0.00000700,-0.00006162,-0.00005118,-0.00004749,-0.0
 0002609,-0.00001883,-0.00044437,-0.00019718,0.00013260,-0.02195778,-0.
 01402007,0.05690970,-0.00265885,0.00213126,-0.00311670,-0.00019279,-0.
 00030434,-0.00008698,-0.00072391,-0.00007300,-0.00032880,0.00019533,-0
 .00036601,0.00023121,-0.00029257,0.00028089,0.00031825,0.00041474,-0.0
 0089018,0.00034535,-0.00003353,0.00046583,0.00022133,0.00018135,0.0003
 3530,-0.00000015,0.00005287,-0.00046414,0.00021249,-0.00012176,0.00000
 905,0.00006418,-0.41477389,0.01223643,-0.01786836,0.00000562,0.0004621
 5,0.00020429,0.00118256,-0.00188659,0.00066152,-0.00017442,0.00071764,
 0.00005014,0.00025968,-0.00071391,-0.00038396,0.00005969,0.00009696,0.
 00003823,-0.01103631,0.00081218,-0.00300827,-0.00015488,0.00018577,0.0
 0053143,0.00000396,-0.00002257,0.00000041,0.00011017,0.00001630,-0.000
 00403,0.00139189,-0.00053145,-0.00045724,0.00004510,0.00022429,-0.0000
 0805,0.00092115,0.00073555,0.00120794,-0.00010800,0.00079641,0.0002525
 2,-0.00983496,0.00096957,-0.00096471,0.00041909,-0.00072519,-0.0009008
 8,0.00000749,-0.00000842,-0.00001097,-0.00000910,-0.00005091,-0.000012
 16,0.00241040,0.00086106,0.00065458,0.00006842,0.00032254,0.00021065,-
 0.00002088,-0.00003407,-0.00000491,-0.00003964,-0.00005436,-0.00000609
 ,0.43244595,0.01196015,0.00026608,0.00041389,0.00059094,0.00072117,0.0
 0017064,-0.00337776,-0.00014227,-0.00065950,0.00035082,-0.00048292,0.0
 0014980,-0.00010476,0.00001214,0.00020637,-0.00023752,-0.00175488,0.00
 103467,-0.00042698,-0.00002100,-0.00060559,0.00015526,0.00080777,0.000
 57512,-0.00118006,0.00245768,-0.00106808,0.00002613,-0.00034435,0.0001
 7546,0.03123600,-0.04949656,-0.01048340,-0.00036828,-0.00192045,-0.000
 69453,0.00185307,-0.00599759,-0.00003015,-0.00037712,0.00099718,0.0003
 7623,0.00018820,0.00048591,-0.00063960,0.00014754,0.00001465,-0.000108
 12,-0.03490001,0.00095371,-0.00486109,0.00027998,0.00004497,0.00056332
 ,-0.00000806,-0.00001646,-0.00003024,-0.00052208,-0.00014098,-0.000152
 20,-0.00060134,0.00069798,-0.00009693,-0.00024183,-0.00045498,-0.00032
 906,0.00009713,-0.00058694,-0.00120064,0.00105777,0.00011460,-0.000074
 40,0.01078257,0.00014508,0.00253838,0.00055963,-0.00040150,-0.00003184
 ,-0.00002598,0.00000348,-0.00004209,-0.00000101,-0.00009143,0.00008917
 ,-0.00094435,0.00218105,0.00047740,-0.00030083,-0.00035274,0.00031776,
 -0.00007882,-0.00004773,0.00004458,-0.00005438,0.00001807,-0.00004546,
 -0.01553402,0.05233125,-0.01343203,0.00053641,-0.00052395,-0.00032749,
 -0.00034673,-0.00012875,-0.00156747,-0.00017478,-0.00028605,-0.0003553
 5,0.00046393,-0.00017587,-0.00028642,0.00003226,0.00070280,0.00030553,
 0.00181172,-0.00084643,0.00080942,-0.00030608,0.00121687,-0.00046759,0
 .00031877,-0.00050876,0.00104932,-0.00165767,0.00079716,-0.00004160,0.
 00002970,-0.00020767,-0.03687142,-0.01105780,-0.04719974,0.00029434,0.
 00079848,0.00049857,-0.00027996,-0.00286564,-0.00032093,0.00038958,-0.
 00092989,-0.00036125,0.00018074,-0.00064504,-0.00274668,-0.00005838,-0
 .00006636,0.00003954,-0.00994456,0.00288666,-0.00225784,0.00031122,0.0
 0016194,0.00009952,0.00001025,0.00001598,0.00002759,-0.00022456,-0.000
 17842,-0.00003125,0.00000071,0.00055074,0.00128866,-0.00021240,-0.0004
 6853,0.00017602,0.00238482,-0.00268496,-0.00506907,0.00011480,0.000545
 82,0.00015497,0.03629811,-0.00059381,-0.00180221,0.00026796,-0.0005485
 6,0.00017668,0.00001216,0.00000371,0.00002809,-0.00000699,0.00006162,-
 0.00005118,-0.00080839,0.00001768,0.00035424,0.00044437,0.00019717,0.0
 0013261,0.00004749,0.00002610,-0.00001883,0.00000608,0.00004546,-0.000
 06653,0.02195772,0.01402012,0.05690963\\0.,0.,-0.00003384,-0.00001103,
 -0.00003659,0.00004839,0.00001103,0.00003658,0.00004840,-0.00000836,-0
 .00000575,0.00001508,0.00000836,0.00000572,0.00001510,-0.00003075,0.00
 001763,-0.00001797,0.00003074,-0.00001762,-0.00001796,-0.00006451,0.00
 002858,0.00008636,0.00006452,-0.00002859,0.00008638,0.00002394,0.00005
 225,0.00001438,-0.00002393,-0.00005224,0.00001438,-0.00002109,0.000066
 64,-0.00017129,0.00002110,-0.00006664,-0.00017130,0.00007193,0.0000153
 5,-0.00003923,-0.00007195,-0.00001537,-0.00003922,-0.00000540,0.000009
 17,0.00003552,0.00000540,-0.00000917,0.00003552,-0.00001508,0.00000010
 ,0.00000943,0.00001506,-0.00000010,0.00000943,-0.00000691,-0.00000132,
 -0.00000632,0.00000692,0.00000132,-0.00000632,0.00000215,-0.00000116,-
 0.00000089,-0.00000216,0.00000118,-0.00000090,0.00002630,-0.00000698,0
 .00000488,-0.00002631,0.00000697,0.00000489,-0.00000760,-0.00000002,0.
 00001159,0.00000760,0.00000007,0.00001155,-0.00002003,-0.00001993,0.00
 000947,0.00002007,0.00001994,0.00000939,0.00000110,0.00000021,0.000000
 86,-0.00000111,-0.00000021,0.00000086,0.00000463,-0.00001840,0.0000166
 9,-0.00000461,0.00001839,0.00001668\\\@


 IF YOU DON'T HAVE THE LAW - ARGUE THE FACTS.
 IF YOU DON'T HAVE THE FACTS - ARGUE THE LAW.
 IF YOU DON'T HAVE EITHER - POUND THE TABLE.
 RW2BAF: Writing raw file "co_rroa_530nm.baf"
 Gaussian matrix elements                                         Version   3 NLab=11 I4Labs=T I2Labs=F
 Writ0E:  Initial coordinates match /B/.
 Write PERTURBATION FREQUENCIES            from file      0 offset           0 length                   1 to binary array file.
 Write FD PERTURBATION SCALARS             from file      0 offset           0 length                   4 to binary array file.
 Write SHELL TO ATOM MAP                   from file      0 offset           0 length                 223 to binary array file.
 Write SHELL TYPES                         from file      0 offset           0 length                 223 to binary array file.
 Write NUMBER OF PRIMITIVES PER SHELL      from file      0 offset           0 length                 223 to binary array file.
 Write PRIMITIVE EXPONENTS                 from file      0 offset           0 length                 398 to binary array file.
 Write CONTRACTION COEFFICIENTS            from file      0 offset           0 length                 398 to binary array file.
 Write P(S=P) CONTRACTION COEFFICIENTS     from file      0 offset           0 length                 398 to binary array file.
 Write COORDINATES OF EACH SHELL           from file      0 offset           0 length                 669 to binary array file.
 Write BONDS PER ATOM                      from file      0 offset           0 length                  33 to binary array file.
 Write BONDED ATOMS                        from file      0 offset           0 length                  74 to binary array file.
 Write BOND TYPES                          from file      0 offset           0 length                  74 to binary array file.
 Write ONIOM CHARGE/MULT                   from file      0 offset           0 length                  32 to binary array file.
 Write ONIOM ATOM LAYERS                   from file      0 offset           0 length                  33 to binary array file.
 Write ONIOM ATOM MODIFIERS                from file      0 offset           0 length                  33 to binary array file.
 Write ONIOM ATOM TYPES                    from file      0 offset           0 length                  33 to binary array file.
 Write ONIOM LINK ATOMS                    from file      0 offset           0 length                  33 to binary array file.
 Write ONIOM LINK CHARGES                  from file      0 offset           0 length                  33 to binary array file.
 Write ONIOM LINK DISTANCES                from file      0 offset           0 length                 132 to binary array file.
 Write SYMINF INTEGERS                     from file      0 offset           0 length                  26 to binary array file.
 Write ROTTR TO INPUT ORIENTATION          from file      0 offset           0 length                  12 to binary array file.
 Write TITLE                               from file      0 offset           0 length                  25 to binary array file.
 Write ROUTE                               from file      0 offset           0 length                  37 to binary array file.
 Write INFO1-9                             from file      0 offset           0 length                   9 to binary array file.
 Write METHOD                              from file      0 offset           0 length                   2 to binary array file.
 Write BASIS NAME                          from file      0 offset           0 length                   4 to binary array file.
 Write LINK0 COMMANDS                      from file      0 offset           0 length                  13 to binary array file.
 Write POINT GROUP                         from file      0 offset           0 length                   4 to binary array file.
 Write POINT GROUP DIMENSIONS              from file      0 offset           0 length                   8 to binary array file.
 Write POINT GROUP IRREP NAMES             from file      0 offset           0 length                   4 to binary array file.
 Write POINT GROUP CLASS NAMES             from file      0 offset           0 length                   4 to binary array file.
 Write POINT GROUP GENERATORS              from file      0 offset           0 length                   1 to binary array file.
 Write POINT GROUP CLASS OF OPERATORS      from file      0 offset           0 length                   2 to binary array file.
 Write POINT GROUP ROTATIONS               from file      0 offset           0 length                  24 to binary array file.
 Write POINT GROUP CELL TRANS              from file      0 offset           0 length                   6 to binary array file.
 Write POINT GROUP CHAR TABLE              from file      0 offset           0 length                   4 to binary array file.
 Write POINT GROUP ATOM PERMUTATIONS       from file      0 offset           0 length                  66 to binary array file.
 Write ILSW                                from file      0 offset           0 length                 100 to binary array file.
 Write RLSW                                from file      0 offset           0 length                 100 to binary array file.
 Write GAUSSIAN SCALARS                    from file 100501 offset           0 to binary array file.
 Write OPTIMIZATION FLAGS                  from file      0 offset           0 length                  33 to binary array file.
 Write INTEGER ISO                         from file      0 offset           0 length                  33 to binary array file.
 Write INTEGER SPIN                        from file      0 offset           0 length                  33 to binary array file.
 Write REAL ZEFFECTIVE                     from file      0 offset           0 length                  33 to binary array file.
 Write REAL QUADRUPOLEMOMENT               from file      0 offset           0 length                  33 to binary array file.
 Write REAL GFACTOR                        from file      0 offset           0 length                  33 to binary array file.
 Write REAL ZNUCLEAR                       from file      0 offset           0 length                  33 to binary array file.
 Write MULLIKEN CHARGES                    from file      0 offset           0 length                  33 to binary array file.
 Write NUCLEAR GRADIENT                    from file      0 offset           0 length                  99 to binary array file.
 Write NUCLEAR FORCE CONSTANTS             from file      0 offset           0 length                4950 to binary array file.
 Write NON-ADIABATIC COUPLING              from file      0 offset           0 length                  99 to binary array file.
 Write ELECTRIC DIPOLE MOMENT              from file      0 offset           0 length                   3 to binary array file.
 Write ELECTRIC DIPOLE DERIVATIVES         from file      0 offset           0 length                 297 to binary array file.
 Write ELECTRIC DIPOLE POLARIZABILITY      from file      0 offset           0 length                   6 to binary array file.
 Write QUADRUPOLE MOMENT                   from file      0 offset           0 length                   6 to binary array file.
 Write QEQ COUPLING TENSORS                from file      0 offset           0 length                 198 to binary array file.
 Write ALPHA(-W,W)                         from file      0 offset           0 length                   9 to binary array file.
 Write FD OPTICAL ROTATION TENSOR          from file      0 offset           0 length                   9 to binary array file.
 Write D-Q POLARIZABILITY                  from file      0 offset           0 length                  18 to binary array file.
 Write DERIVATIVE ALPHA(-W,W)              from file      0 offset           0 length                 891 to binary array file.
 Write DERIVATIVE FD OPTICAL ROTATION TENSOR from file      0 offset           0 length                 891 to binary array file.
 Write DERIVATIVE D-Q POLARIZABILITY       from file      0 offset           0 length                1782 to binary array file.
 Write NORMAL MODE DIMENSIONS              from file      0 offset           0 length                  16 to binary array file.
 Write NORMAL MODE FLAGS                   from file      0 offset           0 length                 744 to binary array file.
 Write NORMAL MODE ATOMIC MASSES           from file      0 offset           0 length                  33 to binary array file.
 Write NORMAL MODE PROPERTIES              from file      0 offset           0 length                2511 to binary array file.
 Write NORMAL MODE COMPONENTS              from file      0 offset           0 length                9207 to binary array file.
 Write MO TRANSFORMATION WINDOW            from file 100569 offset           0 length                   2 to binary array file.
 Write RED INT COORD DIMS                  from file      0 offset           0 length                   4 to binary array file.
 Write RED INT COORD ATOMS                 from file      0 offset           0 length                1016 to binary array file.
 Write RED INT COORD VALS                  from file      0 offset           0 length                 254 to binary array file.
 Write RED INT COORD IFLAGS                from file      0 offset           0 length                 254 to binary array file.
 Write RED INT COORD RFLAGS                from file      0 offset           0 length                 254 to binary array file.
 Write RED INT COORD CONSTRAINT            from file      0 offset           0 length                 508 to binary array file.
 Write HARM CONSTRAINT C AND FC            from file      0 offset           0 length                 198 to binary array file.
 Write FINITE EM FIELD                     from file 100521 offset           0 length                 105 to binary array file.
 Write OVERLAP                             from file 100514 offset           0 length              237705 to binary array file.
 Write CORE HAMILTONIAN ALPHA              from file 100515 offset           0 length              237705 to binary array file.
 Write CORE HAMILTONIAN BETA               from file 100515 offset      237705 length              237705 to binary array file.
 Write KINETIC ENERGY                      from file 100516 offset           0 length              237705 to binary array file.
 Write ORTHONORMAL BASIS                   from file 100685 offset           0 length              471965 to binary array file.
 Write DIPOLE INTEGRALS                    from file 100518 offset           0 length              713115 to binary array file.
 Write QUADRUPOLE INTEGRALS                from file 100518 offset      713115 length             1426230 to binary array file.
 Write DIP VEL INTEGRALS                   from file 100572 offset           0 length              713115 to binary array file.
 Write R X DEL INTEGRALS                   from file 100572 offset      713115 length              713115 to binary array file.
 Write R X DEL - DEL X R INTEGRALS         from file 100572 offset     1426230 length             1426230 to binary array file.
 Array MAGNETIC FIELD P1 (GIAO)             on  file 100696 does not exist.
 Write ALPHA ORBITAL ENERGIES              from file      0 offset           0 length                 685 to binary array file.
 Write ALPHA MO COEFFICIENTS               from file 100524 offset           0 length              471965 to binary array file.
 Write ALPHA DENSITY MATRIX                from file      0 offset           0 length              237705 to binary array file.
 Write SCF ORBITAL OCCUPATIONS             from file 100861 offset           0 length                 685 to binary array file.
 Write ALPHA FOCK MATRIX                   from file 100536 offset           0 length              237705 to binary array file.
 Write ENERGY-WEIGHTED DENSITY             from file 100571 offset           0 length              237705 to binary array file.
 Write ALPHA SCF DENSITY MATRIX            from file      0 offset           0 length              237705 to binary array file.
 Write TRANS MO COEFFICIENTS               from file 100548 offset           0 length              471965 to binary array file.
 No 2e integrals to process.
 Job cpu time:       0 days 17 hours  6 minutes 23.6 seconds.
 Elapsed time:       0 days  2 hours 10 minutes 16.6 seconds.
 File lengths (MBytes):  RWF=   5087 Int=      0 D2E=      0 Chk=     88 Scr=      1
 Normal termination of Gaussian DV at Thu Nov  9 14:54:31 2023.
