 Entering Gaussian System, Link 0=g16
 Input=CoO_komplex.inp
 Output=CoO_komplex.out
 Initial command:
 /afs/ics.muni.cz/software/g16-C.01/avx2/g16/l1.exe "/scratch.ssd/zdrahalj/job_10897527.pbs-m1/Gau-824106.inp" -scrdir="/scratch.ssd/zdrahalj/job_10897527.pbs-m1/"
 Entering Link 1 = /afs/ics.muni.cz/software/g16-C.01/avx2/g16/l1.exe PID=    824107.
  
 Copyright (c) 1988-2019, Gaussian, Inc.  All Rights Reserved.
  
 This is part of the Gaussian(R) 16 program.  It is based on
 the Gaussian(R) 09 system (copyright 2009, Gaussian, Inc.),
 the Gaussian(R) 03 system (copyright 2003, Gaussian, Inc.),
 the Gaussian(R) 98 system (copyright 1998, Gaussian, Inc.),
 the Gaussian(R) 94 system (copyright 1995, Gaussian, Inc.),
 the Gaussian 92(TM) system (copyright 1992, Gaussian, Inc.),
 the Gaussian 90(TM) system (copyright 1990, Gaussian, Inc.),
 the Gaussian 88(TM) system (copyright 1988, Gaussian, Inc.),
 the Gaussian 86(TM) system (copyright 1986, Carnegie Mellon
 University), and the Gaussian 82(TM) system (copyright 1983,
 Carnegie Mellon University). Gaussian is a federally registered
 trademark of Gaussian, Inc.
  
 This software contains proprietary and confidential information,
 including trade secrets, belonging to Gaussian, Inc.
  
 This software is provided under written license and may be
 used, copied, transmitted, or stored only in accord with that
 written license.
  
 The following legend is applicable only to US Government
 contracts under FAR:
  
                    RESTRICTED RIGHTS LEGEND
  
 Use, reproduction and disclosure by the US Government is
 subject to restrictions as set forth in subparagraphs (a)
 and (c) of the Commercial Computer Software - Restricted
 Rights clause in FAR 52.227-19.
  
 Gaussian, Inc.
 340 Quinnipiac St., Bldg. 40, Wallingford CT 06492
  
  
 ---------------------------------------------------------------
 Warning -- This program may not be used in any manner that
 competes with the business of Gaussian, Inc. or will provide
 assistance to any competitor of Gaussian, Inc.  The licensee
 of this program is prohibited from giving any competitor of
 Gaussian, Inc. access to this program.  By using this program,
 the user acknowledges that Gaussian, Inc. is engaged in the
 business of creating and licensing software in the field of
 computational chemistry and represents and warrants to the
 licensee that it is not a competitor of Gaussian, Inc. and that
 it will not use this program in any manner prohibited above.
 ---------------------------------------------------------------
  

 Cite this work as:
 Gaussian 16, Revision C.01,
 M. J. Frisch, G. W. Trucks, H. B. Schlegel, G. E. Scuseria, 
 M. A. Robb, J. R. Cheeseman, G. Scalmani, V. Barone, 
 G. A. Petersson, H. Nakatsuji, X. Li, M. Caricato, A. V. Marenich, 
 J. Bloino, B. G. Janesko, R. Gomperts, B. Mennucci, H. P. Hratchian, 
 J. V. Ortiz, A. F. Izmaylov, J. L. Sonnenberg, D. Williams-Young, 
 F. Ding, F. Lipparini, F. Egidi, J. Goings, B. Peng, A. Petrone, 
 T. Henderson, D. Ranasinghe, V. G. Zakrzewski, J. Gao, N. Rega, 
 G. Zheng, W. Liang, M. Hada, M. Ehara, K. Toyota, R. Fukuda, 
 J. Hasegawa, M. Ishida, T. Nakajima, Y. Honda, O. Kitao, H. Nakai, 
 T. Vreven, K. Throssell, J. A. Montgomery, Jr., J. E. Peralta, 
 F. Ogliaro, M. J. Bearpark, J. J. Heyd, E. N. Brothers, K. N. Kudin, 
 V. N. Staroverov, T. A. Keith, R. Kobayashi, J. Normand, 
 K. Raghavachari, A. P. Rendell, J. C. Burant, S. S. Iyengar, 
 J. Tomasi, M. Cossi, J. M. Millam, M. Klene, C. Adamo, R. Cammi, 
 J. W. Ochterski, R. L. Martin, K. Morokuma, O. Farkas, 
 J. B. Foresman, and D. J. Fox, Gaussian, Inc., Wallingford CT, 2019.
 
 ******************************************
 Gaussian 16:  ES64L-G16RevC.01  3-Jul-2019
                22-May-2025 
 ******************************************
 %chk=CoO_komplex.chk
 %mem=20GB
 %nproc=32
 Will use up to   32 processors via shared memory.
 ----------------------------------------------------------------------
 #p B3LYP/6-311++G** iop(2/11=1) freq(SaveNM) scf(xqc) scrf=(cpcm,solve
 nt=water) td(root=3,nstates=6)
 ----------------------------------------------------------------------
 1/10=4,30=1,38=1/1,3;
 2/11=1,12=2,17=6,18=5,40=1/2;
 3/5=4,6=6,7=1111,11=9,25=1,30=1,70=2101,71=2,72=1,74=-5,140=1/1,2,3,8;
 4//1;
 5/5=2,8=3,13=1,38=5,53=1,98=1/2,8;
 8/6=1,10=2,107=3,108=6/1;
 9/8=3,15=3,41=6,42=1,70=2/14;
 10/5=2004,20=4,28=3/2;
 11/6=1,8=1,12=-3,16=1,42=3/1,2,10;
 10/6=3,21=1,28=3/2,14;
 6/7=2,8=2,9=2,10=2/1;
 7/8=1,10=1,12=6,13=8,14=3,25=1,44=2,92=1/1,2,3,16;
 1/10=4,30=1/3;
 99//99;
 Leave Link    1 at Thu May 22 16:17:03 2025, MaxMem=  2684354560 cpu:               1.3 elap:               0.1
 (Enter /afs/ics.muni.cz/software/g16-C.01/avx2/g16/l101.exe)
 ----------------------------------
 CoO komplex, zakl. stav, frekvence
 ----------------------------------
 Symbolic Z-matrix:
 Charge = -1 Multiplicity = 1
 Co                   0.        -0.05168   0. 
 O                    -3.19378   0.36989   2.21693 
 C                    -2.29211   0.40006   1.38632 
 O                    -1.07661  -0.00256   1.59017 
 C                    -2.547     0.92692  -0.04118 
 N                    -1.22396   1.35561  -0.5732 
 C                    -0.75815   2.65721  -0.00098 
 H                    -1.161     3.49358  -0.57478 
 H                    -1.13945   2.72955   1.01779 
 C                     0.75815   2.6572    0.00098 
 N                     1.22396   1.35561   0.5732 
 C                     2.547     0.92692   0.04118 
 C                     2.29211   0.40006  -1.38632 
 O                     3.19378   0.36989  -2.21693 
 O                     1.07661  -0.00256  -1.59017 
 C                     3.15796  -0.15503   0.93288 
 C                     2.32546  -1.42819   1.1379 
 O                     2.87636  -2.39616   1.6733 
 O                     1.08997  -1.44651   0.76889 
 H                     4.12465  -0.44968   0.52088 
 H                     3.3643    0.26252   1.92433 
 H                     3.22921   1.77888  -0.00859 
 H                     1.24709   1.41573   1.59025 
 H                     1.161     3.49358   0.57477 
 H                     1.13945   2.72955  -1.01779 
 H                    -1.24709   1.41572  -1.59025 
 H                    -3.22921   1.77888   0.00859 
 C                    -3.15796  -0.15504  -0.93288 
 C                    -2.32546  -1.42819  -1.1379 
 O                    -2.87636  -2.39616  -1.6733 
 O                    -1.08996  -1.44651  -0.76889 
 H                    -4.12465  -0.44968  -0.52088 
 H                    -3.3643    0.26252  -1.92433 
 
 ITRead=  0  0  0  0  0  0  0  0  0  0  0  0  0  0  0  0  0  0  0  0
 ITRead=  0  0  0  0  0  0  0  0  0  0  0  0  0
 MicOpt= -1 -1 -1 -1 -1 -1 -1 -1 -1 -1 -1 -1 -1 -1 -1 -1 -1 -1 -1 -1
 MicOpt= -1 -1 -1 -1 -1 -1 -1 -1 -1 -1 -1 -1 -1
 NAtoms=     33 NQM=       33 NQMF=       0 NMMI=      0 NMMIF=      0
                NMic=       0 NMicF=      0.
                    Isotopes and Nuclear Properties:
 (Nuclear quadrupole moments (NQMom) in fm**2, nuclear magnetic moments (NMagM)
  in nuclear magnetons)

  Atom         1           2           3           4           5           6           7           8           9          10
 IAtWgt=          59          16          12          16          12          14          12           1           1          12
 AtmWgt=  58.9331978  15.9949146  12.0000000  15.9949146  12.0000000  14.0030740  12.0000000   1.0078250   1.0078250  12.0000000
 NucSpn=           7           0           0           0           0           2           0           1           1           0
 AtZEff=  -0.0000000  -0.0000000  -0.0000000  -0.0000000  -0.0000000  -0.0000000  -0.0000000  -0.0000000  -0.0000000  -0.0000000
 NQMom=   42.0000000   0.0000000   0.0000000   0.0000000   0.0000000   2.0440000   0.0000000   0.0000000   0.0000000   0.0000000
 NMagM=    4.6270000   0.0000000   0.0000000   0.0000000   0.0000000   0.4037610   0.0000000   2.7928460   2.7928460   0.0000000
 AtZNuc=  27.0000000   8.0000000   6.0000000   8.0000000   6.0000000   7.0000000   6.0000000   1.0000000   1.0000000   6.0000000

  Atom        11          12          13          14          15          16          17          18          19          20
 IAtWgt=          14          12          12          16          16          12          12          16          16           1
 AtmWgt=  14.0030740  12.0000000  12.0000000  15.9949146  15.9949146  12.0000000  12.0000000  15.9949146  15.9949146   1.0078250
 NucSpn=           2           0           0           0           0           0           0           0           0           1
 AtZEff=  -0.0000000  -0.0000000  -0.0000000  -0.0000000  -0.0000000  -0.0000000  -0.0000000  -0.0000000  -0.0000000  -0.0000000
 NQMom=    2.0440000   0.0000000   0.0000000   0.0000000   0.0000000   0.0000000   0.0000000   0.0000000   0.0000000   0.0000000
 NMagM=    0.4037610   0.0000000   0.0000000   0.0000000   0.0000000   0.0000000   0.0000000   0.0000000   0.0000000   2.7928460
 AtZNuc=   7.0000000   6.0000000   6.0000000   8.0000000   8.0000000   6.0000000   6.0000000   8.0000000   8.0000000   1.0000000

  Atom        21          22          23          24          25          26          27          28          29          30
 IAtWgt=           1           1           1           1           1           1           1          12          12          16
 AtmWgt=   1.0078250   1.0078250   1.0078250   1.0078250   1.0078250   1.0078250   1.0078250  12.0000000  12.0000000  15.9949146
 NucSpn=           1           1           1           1           1           1           1           0           0           0
 AtZEff=  -0.0000000  -0.0000000  -0.0000000  -0.0000000  -0.0000000  -0.0000000  -0.0000000  -0.0000000  -0.0000000  -0.0000000
 NQMom=    0.0000000   0.0000000   0.0000000   0.0000000   0.0000000   0.0000000   0.0000000   0.0000000   0.0000000   0.0000000
 NMagM=    2.7928460   2.7928460   2.7928460   2.7928460   2.7928460   2.7928460   2.7928460   0.0000000   0.0000000   0.0000000
 AtZNuc=   1.0000000   1.0000000   1.0000000   1.0000000   1.0000000   1.0000000   1.0000000   6.0000000   6.0000000   8.0000000

  Atom        31          32          33
 IAtWgt=          16           1           1
 AtmWgt=  15.9949146   1.0078250   1.0078250
 NucSpn=           0           1           1
 AtZEff=  -0.0000000  -0.0000000  -0.0000000
 NQMom=    0.0000000   0.0000000   0.0000000
 NMagM=    0.0000000   2.7928460   2.7928460
 AtZNuc=   8.0000000   1.0000000   1.0000000
 Leave Link  101 at Thu May 22 16:17:07 2025, MaxMem=  2684354560 cpu:               1.3 elap:               0.1
 (Enter /afs/ics.muni.cz/software/g16-C.01/avx2/g16/l103.exe)

 GradGradGradGradGradGradGradGradGradGradGradGradGradGradGradGradGradGrad
 Berny optimization.
 Initialization pass.
 Trust Radius=3.00D-01 FncErr=1.00D-07 GrdErr=1.00D-07 EigMax=2.50D+02 EigMin=1.00D-04
 Number of steps in this run=      2 maximum allowed number of steps=      2.
 GradGradGradGradGradGradGradGradGradGradGradGradGradGradGradGradGradGrad

 Leave Link  103 at Thu May 22 16:17:12 2025, MaxMem=  2684354560 cpu:               0.9 elap:               0.2
 (Enter /afs/ics.muni.cz/software/g16-C.01/avx2/g16/l202.exe)
                          Input orientation:                          
 ---------------------------------------------------------------------
 Center     Atomic      Atomic             Coordinates (Angstroms)
 Number     Number       Type             X           Y           Z
 ---------------------------------------------------------------------
      1         27           0       -0.000000   -0.051679    0.000000
      2          8           0       -3.193781    0.369893    2.216930
      3          6           0       -2.292107    0.400062    1.386323
      4          8           0       -1.076611   -0.002562    1.590167
      5          6           0       -2.547002    0.926916   -0.041183
      6          7           0       -1.223958    1.355606   -0.573203
      7          6           0       -0.758151    2.657206   -0.000985
      8          1           0       -1.161002    3.493581   -0.574776
      9          1           0       -1.139449    2.729549    1.017785
     10          6           0        0.758150    2.657205    0.000983
     11          7           0        1.223958    1.355606    0.573202
     12          6           0        2.547001    0.926917    0.041183
     13          6           0        2.292106    0.400062   -1.386324
     14          8           0        3.193782    0.369892   -2.216930
     15          8           0        1.076612   -0.002564   -1.590167
     16          6           0        3.157962   -0.155034    0.932876
     17          6           0        2.325459   -1.428192    1.137904
     18          8           0        2.876364   -2.396158    1.673304
     19          8           0        1.089965   -1.446505    0.768892
     20          1           0        4.124650   -0.449679    0.520882
     21          1           0        3.364303    0.262521    1.924333
     22          1           0        3.229214    1.778881   -0.008591
     23          1           0        1.247087    1.415725    1.590246
     24          1           0        1.161001    3.493582    0.574774
     25          1           0        1.139449    2.729549   -1.017787
     26          1           0       -1.247087    1.415724   -1.590247
     27          1           0       -3.229214    1.778880    0.008588
     28          6           0       -3.157962   -0.155035   -0.932876
     29          6           0       -2.325459   -1.428192   -1.137903
     30          8           0       -2.876364   -2.396159   -1.673303
     31          8           0       -1.089965   -1.446506   -0.768891
     32          1           0       -4.124648   -0.449680   -0.520883
     33          1           0       -3.364303    0.262520   -1.924333
 ---------------------------------------------------------------------
                    Distance matrix (angstroms):
                    1          2          3          4          5
     1  Co   0.000000
     2  O    3.910593   0.000000
     3  C    2.716563   1.226309   0.000000
     4  O    1.920972   2.239188   1.296568   0.000000
     5  C    2.728839   2.414057   1.542828   2.384802   0.000000
     6  N    1.951175   3.554809   2.427704   2.558613   1.489048
     7  C    2.812979   4.010391   3.061428   3.115693   2.489077
     8  H    3.774541   4.656526   3.833427   4.113042   2.965381
     9  H    3.173241   3.350552   2.625061   2.792132   2.520338
    10  C    2.812978   5.075428   4.039545   3.600863   3.730912
    11  N    1.951176   4.815588   3.733222   2.858576   3.844657
    12  C    2.728839   6.164473   5.050143   4.048932   5.094669
    13  C    2.716564   6.563483   5.357479   4.513299   5.050143
    14  O    3.910594   7.775607   6.563483   5.733146   6.164474
    15  O    1.920973   5.733146   4.513298   3.840689   4.048933
    16  C    3.294490   6.501460   5.496999   4.287994   5.887786
    17  C    2.932128   5.904186   4.972538   3.716321   5.538741
    18  O    4.070626   6.692774   5.883391   4.621929   6.587502
    19  O    1.929963   4.873048   3.902492   2.730113   4.417791
    20  H    4.176417   7.556964   6.530376   5.328827   6.835340
    21  H    3.888485   6.565486   5.683603   4.461351   6.264839
    22  H    3.711987   6.942121   5.859343   4.926428   5.838799
    23  H    2.497475   4.605193   3.687689   2.722335   4.158799
    24  H    3.774541   5.605196   4.706636   4.273283   4.551534
    25  H    3.173242   5.899852   4.793937   4.379130   4.218194
    26  H    2.497475   4.402041   3.314151   3.486493   2.080459
    27  H    3.711986   2.619785   2.162744   3.210705   1.092581
    28  C    3.294490   3.193448   2.537030   3.274296   1.529381
    29  C    2.932127   3.904100   3.116945   3.321809   2.607376
    30  O    4.070626   4.783902   4.185872   4.429296   3.716870
    31  O    1.929963   4.079274   3.082191   2.765919   2.878480
    32  H    4.176416   3.005633   2.778075   3.734565   2.148045
    33  H    3.888485   4.146163   3.482666   4.201847   2.157697
                    6          7          8          9         10
     6  N    0.000000
     7  C    1.496186   0.000000
     8  H    2.138902   1.091352   0.000000
     9  H    2.103831   1.090190   1.766483   0.000000
    10  C    2.439795   1.516302   2.171213   2.154067   0.000000
    11  N    2.703061   2.439797   3.402473   2.769670   1.496186
    12  C    3.844656   3.730913   4.551533   4.218193   2.489077
    13  C    3.733221   4.039546   4.706636   4.793936   3.061427
    14  O    4.815588   5.075430   5.605197   5.899852   4.010391
    15  O    2.858576   3.600865   4.273284   4.379130   3.115693
    16  C    4.873554   4.910879   5.851398   5.176464   3.812638
    17  C    4.824497   5.243681   6.269970   5.413578   4.521008
    18  O    5.994594   6.445885   7.486201   6.544413   5.728871
    19  O    3.873923   4.566036   5.592561   4.740429   4.188105
    20  H    5.750102   5.810923   6.684899   6.169696   4.610460
    21  H    5.337102   5.141594   6.096202   5.214580   4.028129
    22  H    4.508734   4.082964   4.747079   4.587204   2.622537
    23  H    3.284842   2.845043   3.847557   2.783775   2.075111
    24  H    3.402472   2.171213   2.590976   2.464158   1.091353
    25  H    2.769669   2.154068   2.464159   3.055640   1.090191
    26  H    1.019082   2.075112   2.314321   2.922252   2.845042
    27  H    2.130421   2.622537   2.749185   2.507861   4.082963
    28  C    2.480277   3.812639   4.174744   4.024959   4.910877
    29  C    3.046592   4.521008   5.088902   4.831193   5.243679
    30  O    4.244574   5.728872   6.232036   6.044147   6.445883
    31  O    2.812131   4.188106   4.944410   4.542477   4.566035
    32  H    3.416987   4.610460   4.933094   4.624544   5.810920
    33  H    2.757076   4.028128   4.137100   4.437597   5.141593
                   11         12         13         14         15
    11  N    0.000000
    12  C    1.489047   0.000000
    13  C    2.427704   1.542829   0.000000
    14  O    3.554809   2.414058   1.226309   0.000000
    15  O    2.558613   2.384802   1.296567   2.239188   0.000000
    16  C    2.480276   1.529381   2.537031   3.193447   3.274295
    17  C    3.046592   2.607377   3.116946   3.904100   3.321807
    18  O    4.244573   3.716870   4.185873   4.783901   4.429294
    19  O    2.812130   2.878480   3.082193   4.079274   2.765918
    20  H    3.416987   2.148046   2.778077   3.005632   3.734565
    21  H    2.757076   2.157698   3.482668   4.146163   4.201846
    22  H    2.130421   1.092581   2.162743   2.619783   3.210704
    23  H    1.019082   2.080459   3.314152   4.402042   3.486492
    24  H    2.138903   2.965382   3.833428   4.656527   4.113043
    25  H    2.103832   2.520338   2.625061   3.350553   2.792132
    26  H    3.284843   4.158798   3.687688   4.605194   2.722336
    27  H    4.508736   5.838799   5.859343   6.942122   4.926428
    28  C    4.873554   5.887785   5.496998   6.501460   4.287994
    29  C    4.824497   5.538741   4.972538   5.904187   3.716321
    30  O    5.994595   6.587502   5.883391   6.692775   4.621929
    31  O    3.873924   4.417791   3.902492   4.873049   2.730113
    32  H    5.750102   6.835338   6.530375   7.556963   5.328826
    33  H    5.337102   6.264838   5.683602   6.565486   4.461351
                   16         17         18         19         20
    16  C    0.000000
    17  C    1.534936   0.000000
    18  O    2.377008   1.235762   0.000000
    19  O    2.443645   1.289554   2.216083   0.000000
    20  H    1.091348   2.138993   2.583617   3.203823   0.000000
    21  H    1.095407   2.134521   2.714714   3.070575   1.747865
    22  H    2.152083   3.523711   4.514889   3.947655   2.459395
    23  H    2.559466   3.074958   4.146311   2.981891   3.592164
    24  H    4.174745   5.088903   6.232036   4.944410   4.933095
    25  H    4.024960   4.831193   6.044147   4.542477   4.624545
    26  H    5.313934   5.319187   6.494925   4.384028   6.065654
    27  H    6.737237   6.512685   7.581577   5.443940   7.701184
    28  C    6.585737   5.998080   6.944630   4.754870   7.432137
    29  C    5.998080   5.177869   5.991561   3.911690   6.731490
    30  O    6.944631   5.991561   6.655348   4.753727   7.590614
    31  O    4.754870   3.911690   4.753726   2.667746   5.463459
    32  H    7.432136   6.731489   7.590613   5.463458   8.314818
    33  H    7.132877   6.679011   7.678377   5.478570   7.910165
                   21         22         23         24         25
    21  H    0.000000
    22  H    2.460445   0.000000
    23  H    2.433947   2.572351   0.000000
    24  H    4.137101   2.749186   2.314321   0.000000
    25  H    4.437598   2.507860   2.922252   1.766483   0.000000
    26  H    5.911605   4.761386   4.041836   3.847557   2.783775
    27  H    7.031635   6.458451   4.761386   4.747079   4.587204
    28  C    7.132877   6.737236   5.313933   5.851397   5.176464
    29  C    6.679011   6.512684   5.319187   6.269970   5.413578
    30  O    7.678378   7.581577   6.494926   7.486201   6.544413
    31  O    5.478570   5.443940   4.384028   5.592562   4.740429
    32  H    7.910165   7.701183   6.065653   6.684898   6.169695
    33  H    7.751540   7.031634   5.911604   6.096201   5.214579
                   26         27         28         29         30
    26  H    0.000000
    27  H    2.572350   0.000000
    28  C    2.559465   2.152082   0.000000
    29  C    3.074956   3.523710   1.534935   0.000000
    30  O    4.146311   4.514888   2.377008   1.235763   0.000000
    31  O    2.981891   3.947655   2.443645   1.289555   2.216083
    32  H    3.592162   2.459395   1.091346   2.138992   2.583616
    33  H    2.433946   2.460443   1.095407   2.134520   2.714714
                   31         32         33
    31  O    0.000000
    32  H    3.203822   0.000000
    33  H    3.070575   1.747864   0.000000
 Stoichiometry    C10H12CoN2O8(1-)
 Framework group  C1[X(C10H12CoN2O8)]
 Deg. of freedom    93
 Full point group                 C1      NOp   1
 Largest Abelian subgroup         C1      NOp   1
 Largest concise Abelian subgroup C1      NOp   1
                         Standard orientation:                         
 ---------------------------------------------------------------------
 Center     Atomic      Atomic             Coordinates (Angstroms)
 Number     Number       Type             X           Y           Z
 ---------------------------------------------------------------------
      1         27           0       -0.000000    0.103942   -0.000000
      2          8           0       -3.151485   -0.317631   -2.276654
      3          6           0       -2.265605   -0.347800   -1.429222
      4          8           0       -1.046488    0.054824   -1.610151
      5          6           0       -2.547326   -0.874654   -0.006767
      6          7           0       -1.234530   -1.303344    0.550062
      7          6           0       -0.758035   -2.604944   -0.013287
      8          1           0       -1.171615   -3.441319    0.552820
      9          1           0       -1.120090   -2.677287   -1.039053
     10          6           0        0.758034   -2.604942    0.013287
     11          7           0        1.234531   -1.303343   -0.550061
     12          6           0        2.547325   -0.874654    0.006767
     13          6           0        2.265605   -0.347800    1.429223
     14          8           0        3.151486   -0.317630    2.276655
     15          8           0        1.046489    0.054826    1.610150
     16          6           0        3.174963    0.207297   -0.873267
     17          6           0        2.346466    1.480455   -1.093929
     18          8           0        2.907351    2.448421   -1.618865
     19          8           0        1.104245    1.498768   -0.748239
     20          1           0        4.133724    0.501942   -0.443150
     21          1           0        3.399929   -0.210258   -1.860665
     22          1           0        3.228480   -1.726618    0.069374
     23          1           0        1.276800   -1.363463   -1.566490
     24          1           0        1.171614   -3.441319   -0.552818
     25          1           0        1.120089   -2.677286    1.039055
     26          1           0       -1.276800   -1.363461    1.566491
     27          1           0       -3.228480   -1.726618   -0.069371
     28          6           0       -3.174962    0.207297    0.873267
     29          6           0       -2.346466    1.480454    1.093929
     30          8           0       -2.907351    2.448421    1.618864
     31          8           0       -1.104245    1.498769    0.748238
     32          1           0       -4.133722    0.501942    0.443151
     33          1           0       -3.399929   -0.210258    1.860665
 ---------------------------------------------------------------------
 Rotational constants (GHZ):           0.4721280           0.2619765           0.2453351
 Leave Link  202 at Thu May 22 16:17:16 2025, MaxMem=  2684354560 cpu:               1.6 elap:               0.2
 (Enter /afs/ics.muni.cz/software/g16-C.01/avx2/g16/l301.exe)
 Standard basis: 6-311++G(d,p) (5D, 7F)
 Ernie: Thresh=  0.10000D-02 Tol=  0.10000D-05 Strict=F.
 There are   609 symmetry adapted cartesian basis functions of A   symmetry.
 There are   582 symmetry adapted basis functions of A   symmetry.
   582 basis functions,   922 primitive gaussians,   609 cartesian basis functions
    89 alpha electrons       89 beta electrons
       nuclear repulsion energy      2514.3796347986 Hartrees.
 IExCor=  402 DFT=T Ex+Corr=B3LYP ExCW=0 ScaHFX=  0.200000
 ScaDFX=  0.800000  0.720000  1.000000  0.810000 ScalE2=  1.000000  1.000000
 IRadAn=      5 IRanWt=     -1 IRanGd=            0 ICorTp=0 IEmpDi=  4
 NAtoms=   33 NActive=   33 NUniq=   33 SFac= 1.00D+00 NAtFMM=   60 NAOKFM=F Big=F
 Integral buffers will be    131072 words long.
 Regular integral format.
 Two-electron integral symmetry is turned on.
 Force inversion solution in PCM.
 ------------------------------------------------------------------------------
 Polarizable Continuum Model (PCM)
 =================================
 Model                : C-PCM.
 Atomic radii         : UFF (Universal Force Field).
 Polarization charges : Total charges.
 Charge compensation  : None.
 Solution method      : Matrix inversion.
 Cavity type          : Scaled VdW (van der Waals Surface) (Alpha=1.100).
 Cavity algorithm     : GePol (No added spheres)
                        Default sphere list used, NSphG=   33.
                        Lebedev-Laikov grids with approx.  5.0 points / Ang**2.
                        Smoothing algorithm: York/Karplus (Gamma=1.0000).
                        Polarization charges: spherical gaussians, with
                                              point-specific exponents (IZeta= 3).
                        Self-potential: point-specific (ISelfS= 7).
                        Self-field    : sphere-specific E.n sum rule (ISelfD= 2).
 1st derivatives      : Analytical E(r).r(x)/FMM algorithm (CHGder, D1EAlg=3).
                        Cavity 1st derivative terms included.
 2nd derivatives      : Analytical E(r).r(xy)/FMM algorithm (CHGder, D2EAlg=3).
                        Cavity 2nd derivative terms included.
 Solvent              : Water, Eps=  78.355300 Eps(inf)=   1.777849
 ------------------------------------------------------------------------------
 GePol: Number of generator spheres                  =      33
 GePol: Total number of spheres                      =      33
 GePol: Number of exposed spheres                    =      32 ( 96.97%)
 GePol: Number of points                             =    2412
 GePol: Average weight of points                     =       0.13
 GePol: Minimum weight of points                     =   0.92D-09
 GePol: Maximum weight of points                     =    0.20577
 GePol: Number of points with low weight             =     142
 GePol: Fraction of low-weight points (<1% of avg)   =       5.89%
 GePol: Cavity surface area                          =    312.005 Ang**2
 GePol: Cavity volume                                =    352.176 Ang**3
 Leave Link  301 at Thu May 22 16:17:20 2025, MaxMem=  2684354560 cpu:               7.0 elap:               0.3
 (Enter /afs/ics.muni.cz/software/g16-C.01/avx2/g16/l302.exe)
 NPDir=0 NMtPBC=     1 NCelOv=     1 NCel=       1 NClECP=     1 NCelD=      1
         NCelK=      1 NCelE2=     1 NClLst=     1 CellRange=     0.0.
 One-electron integrals computed using PRISM.
 One-electron integral symmetry used in STVInt
 NBasis=   582 RedAO= T EigKep=  5.25D-06  NBF=   582
 NBsUse=   582 1.00D-06 EigRej= -1.00D+00 NBFU=   582
 Precomputing XC quadrature grid using
 IXCGrd= 4 IRadAn=           5 IRanWt=          -1 IRanGd=           0 AccXCQ= 0.00D+00.
 Generated NRdTot=       0 NPtTot=           0 NUsed=           0 NTot=          32
 NSgBfM=   597   597   597   597   597 MxSgAt=    33 MxSgA2=    33.
 Leave Link  302 at Thu May 22 16:17:27 2025, MaxMem=  2684354560 cpu:              55.5 elap:               2.0
 (Enter /afs/ics.muni.cz/software/g16-C.01/avx2/g16/l303.exe)
 DipDrv:  MaxL=1.
 Leave Link  303 at Thu May 22 16:17:31 2025, MaxMem=  2684354560 cpu:              10.8 elap:               0.5
 (Enter /afs/ics.muni.cz/software/g16-C.01/avx2/g16/l308.exe)
 Leave Link  308 at Thu May 22 16:17:36 2025, MaxMem=  2684354560 cpu:               5.9 elap:               0.3
 (Enter /afs/ics.muni.cz/software/g16-C.01/avx2/g16/l401.exe)
 ExpMin= 1.33D-02 ExpMax= 2.71D+05 ExpMxC= 9.06D+03 IAcc=3 IRadAn=         5 AccDes= 0.00D+00
 Harris functional with IExCor=  402 and IRadAn=       5 diagonalized for initial guess.
 HarFok:  IExCor=  402 AccDes= 0.00D+00 IRadAn=         5 IDoV= 1 UseB2=F ITyADJ=14
 ICtDFT=  3500011 ScaDFX=  1.000000  1.000000  1.000000  1.000000
 FoFCou: FMM=F IPFlag=           0 FMFlag=      100000 FMFlg1=           0
         NFxFlg=           0 DoJE=T BraDBF=F KetDBF=T FulRan=T
         wScrn=  0.000000 ICntrl=       500 IOpCl=  0 I1Cent=   200000004 NGrid=           0
         NMat0=    1 NMatS0=      1 NMatT0=    0 NMatD0=    1 NMtDS0=    0 NMtDT0=    0
 Petite list used in FoFCou.
 Harris En= -2483.11083033201    
 JPrj=0 DoOrth=F DoCkMO=F.
 Leave Link  401 at Thu May 22 16:17:43 2025, MaxMem=  2684354560 cpu:              80.8 elap:               3.1
 (Enter /afs/ics.muni.cz/software/g16-C.01/avx2/g16/l502.exe)
 Integral symmetry usage will be decided dynamically.
 Closed shell SCF:
 Using DIIS extrapolation, IDIIS=  1040.
 NGot=  2684354560 LenX=  2683586792 LenY=  2683215302
 Requested convergence on RMS density matrix=1.00D-08 within  32 cycles.
 Requested convergence on MAX density matrix=1.00D-06.
 Requested convergence on             energy=1.00D-06.
 No special actions if energy rises.
 Fock matrices will be formed incrementally for  20 cycles.

 Cycle   1  Pass 1  IDiag  1:
 FoFJK:  IHMeth= 1 ICntrl=       0 DoSepK=F KAlg= 0 I1Cent=           0 FoldK=F
 IRaf= 880000000 NMat=       1 IRICut=       1 DoRegI=T DoRafI=F ISym2E= 0 IDoP0=0 IntGTp=1.
 FoFCou: FMM=F IPFlag=           0 FMFlag=      100000 FMFlg1=           0
         NFxFlg=           0 DoJE=F BraDBF=F KetDBF=F FulRan=T
         wScrn=  0.000000 ICntrl=         0 IOpCl=  0 I1Cent=           0 NGrid=           0
         NMat0=    1 NMatS0=      1 NMatT0=    0 NMatD0=    1 NMtDS0=    0 NMtDT0=    0
 Symmetry not used in FoFCou.
 Inv3:  Mode=1 IEnd=    17453232.
 Iteration    1 A*A^-1 deviation from unit magnitude is 3.44D-15 for    253.
 Iteration    1 A*A^-1 deviation from orthogonality  is 3.02D-15 for   1375    839.
 Iteration    1 A^-1*A deviation from unit magnitude is 3.44D-15 for    253.
 Iteration    1 A^-1*A deviation from orthogonality  is 1.68D-15 for   1954    482.
 E= -2482.32212176283    
 DIIS: error= 3.79D-02 at cycle   1 NSaved=   1.
 NSaved= 1 IEnMin= 1 EnMin= -2482.32212176283     IErMin= 1 ErrMin= 3.79D-02
 ErrMax= 3.79D-02  0.00D+00 EMaxC= 1.00D-01 BMatC= 1.53D+00 BMatP= 1.53D+00
 IDIUse=3 WtCom= 6.21D-01 WtEn= 3.79D-01
 Coeff-Com:  0.100D+01
 Coeff-En:   0.100D+01
 Coeff:      0.100D+01
 Gap=     0.235 Goal=   None    Shift=    0.000
 GapD=    0.235 DampG=1.000 DampE=0.250 DampFc=0.2500 IDamp=-1.
 Damping current iteration by 2.50D-01
 RMSDP=1.90D-02 MaxDP=2.91D+00              OVMax= 5.81D-01

 Cycle   2  Pass 1  IDiag  1:
 RMSU=  4.58D-03    CP:  1.05D+00
 E= -2482.31128723591     Delta-E=        0.010834526922 Rises=F Damp=T
 DIIS: error= 2.45D-02 at cycle   2 NSaved=   2.
 NSaved= 2 IEnMin= 1 EnMin= -2482.32212176283     IErMin= 2 ErrMin= 2.45D-02
 ErrMax= 2.45D-02  0.00D+00 EMaxC= 1.00D-01 BMatC= 4.50D-01 BMatP= 1.53D+00
 IDIUse=3 WtCom= 7.55D-01 WtEn= 2.45D-01
 Coeff-Com:  0.108D+00 0.892D+00
 Coeff-En:   0.509D+00 0.491D+00
 Coeff:      0.207D+00 0.793D+00
 Gap=     0.002 Goal=   None    Shift=    0.000
 RMSDP=1.09D-02 MaxDP=6.74D-01 DE= 1.08D-02 OVMax= 6.75D-01

 Cycle   3  Pass 1  IDiag  1:
 RMSU=  1.05D-02    CP:  9.23D-01  1.02D+00
 E= -2480.68146802540     Delta-E=        1.629819210506 Rises=F Damp=F
 DIIS: error= 7.98D-02 at cycle   3 NSaved=   3.
 NSaved= 3 IEnMin= 1 EnMin= -2482.32212176283     IErMin= 2 ErrMin= 2.45D-02
 ErrMax= 7.98D-02  0.00D+00 EMaxC= 1.00D-01 BMatC= 4.49D+00 BMatP= 4.50D-01
 IDIUse=2 WtCom= 0.00D+00 WtEn= 1.00D+00
 EnCoef did     4 forward-backward iterations
 Coeff-En:   0.265D+00 0.566D+00 0.169D+00
 Coeff:      0.265D+00 0.566D+00 0.169D+00
 Gap=     0.287 Goal=   None    Shift=    0.000
 RMSDP=1.03D-02 MaxDP=1.50D+00 DE= 1.63D+00 OVMax= 2.64D-01

 Cycle   4  Pass 1  IDiag  1:
 RMSU=  3.53D-03    CP:  8.81D-01  1.43D+00  1.04D-01
 E= -2482.47231587870     Delta-E=       -1.790847853295 Rises=F Damp=F
 DIIS: error= 5.46D-02 at cycle   4 NSaved=   4.
 NSaved= 4 IEnMin= 4 EnMin= -2482.47231587870     IErMin= 2 ErrMin= 2.45D-02
 ErrMax= 5.46D-02  0.00D+00 EMaxC= 1.00D-01 BMatC= 1.30D+00 BMatP= 4.50D-01
 IDIUse=2 WtCom= 0.00D+00 WtEn= 1.00D+00
 EnCoef did   100 forward-backward iterations
 Coeff-En:   0.362D+00 0.418D-02 0.897D-01 0.544D+00
 Coeff:      0.362D+00 0.418D-02 0.897D-01 0.544D+00
 Gap=     0.252 Goal=   None    Shift=    0.000
 RMSDP=5.16D-03 MaxDP=1.53D+00 DE=-1.79D+00 OVMax= 2.80D-01

 Cycle   5  Pass 1  IDiag  1:
 RMSU=  3.38D-03    CP:  9.82D-01  9.45D-01  1.40D-01  3.95D-01
 E= -2482.70593803239     Delta-E=       -0.233622153691 Rises=F Damp=F
 DIIS: error= 3.76D-02 at cycle   5 NSaved=   5.
 NSaved= 5 IEnMin= 5 EnMin= -2482.70593803239     IErMin= 2 ErrMin= 2.45D-02
 ErrMax= 3.76D-02  0.00D+00 EMaxC= 1.00D-01 BMatC= 7.56D-01 BMatP= 4.50D-01
 IDIUse=2 WtCom= 0.00D+00 WtEn= 1.00D+00
 Coeff-En:   0.000D+00 0.000D+00 0.000D+00 0.412D+00 0.588D+00
 Coeff:      0.000D+00 0.000D+00 0.000D+00 0.412D+00 0.588D+00
 Gap=     0.309 Goal=   None    Shift=    0.000
 RMSDP=5.54D-03 MaxDP=1.47D+00 DE=-2.34D-01 OVMax= 1.79D-01

 Cycle   6  Pass 1  IDiag  1:
 RMSU=  1.50D-03    CP:  8.25D-01  8.08D-01  7.63D-02  8.61D-01  1.10D-02
 E= -2482.88249960416     Delta-E=       -0.176561571778 Rises=F Damp=F
 DIIS: error= 1.53D-02 at cycle   6 NSaved=   6.
 NSaved= 6 IEnMin= 6 EnMin= -2482.88249960416     IErMin= 6 ErrMin= 1.53D-02
 ErrMax= 1.53D-02  0.00D+00 EMaxC= 1.00D-01 BMatC= 2.93D-01 BMatP= 4.50D-01
 IDIUse=3 WtCom= 8.47D-01 WtEn= 1.53D-01
 EnCoef did     9 forward-backward iterations
 Coeff-Com: -0.135D+00 0.176D+00 0.182D-02 0.844D-01 0.435D+00 0.438D+00
 Coeff-En:   0.000D+00 0.000D+00 0.000D+00 0.156D+00 0.388D+00 0.457D+00
 Coeff:     -0.114D+00 0.149D+00 0.154D-02 0.953D-01 0.427D+00 0.441D+00
 Gap=     0.195 Goal=   None    Shift=    0.000
 RMSDP=2.03D-03 MaxDP=3.03D-01 DE=-1.77D-01 OVMax= 6.62D-02

 Cycle   7  Pass 1  IDiag  1:
 RMSU=  4.76D-04    CP:  8.74D-01  1.06D+00  1.01D-01  8.20D-01  2.52D-01
                    CP:  5.63D-01
 E= -2483.04184065201     Delta-E=       -0.159341047848 Rises=F Damp=F
 DIIS: error= 2.37D-03 at cycle   7 NSaved=   7.
 NSaved= 7 IEnMin= 7 EnMin= -2483.04184065201     IErMin= 7 ErrMin= 2.37D-03
 ErrMax= 2.37D-03  0.00D+00 EMaxC= 1.00D-01 BMatC= 8.56D-03 BMatP= 2.93D-01
 IDIUse=3 WtCom= 9.76D-01 WtEn= 2.37D-02
 Coeff-Com: -0.116D+00 0.148D+00-0.126D-01-0.320D-01 0.199D+00 0.227D+00
 Coeff-Com:  0.587D+00
 Coeff-En:   0.000D+00 0.000D+00 0.000D+00 0.000D+00 0.000D+00 0.000D+00
 Coeff-En:   0.100D+01
 Coeff:     -0.114D+00 0.145D+00-0.123D-01-0.312D-01 0.195D+00 0.221D+00
 Coeff:      0.597D+00
 Gap=     0.196 Goal=   None    Shift=    0.000
 RMSDP=4.19D-04 MaxDP=4.84D-02 DE=-1.59D-01 OVMax= 1.34D-02

 Cycle   8  Pass 1  IDiag  1:
 RMSU=  2.49D-04    CP:  8.65D-01  1.01D+00  1.01D-01  8.30D-01  2.54D-01
                    CP:  6.17D-01  7.36D-01
 E= -2483.04461549323     Delta-E=       -0.002774841214 Rises=F Damp=F
 DIIS: error= 2.95D-03 at cycle   8 NSaved=   8.
 NSaved= 8 IEnMin= 8 EnMin= -2483.04461549323     IErMin= 7 ErrMin= 2.37D-03
 ErrMax= 2.95D-03  0.00D+00 EMaxC= 1.00D-01 BMatC= 5.56D-03 BMatP= 8.56D-03
 IDIUse=3 WtCom= 9.76D-01 WtEn= 2.37D-02
 Coeff-Com: -0.735D-01 0.105D+00-0.125D-01-0.180D-01 0.950D-01 0.953D-01
 Coeff-Com:  0.341D+00 0.468D+00
 Coeff-En:   0.000D+00 0.000D+00 0.000D+00 0.000D+00 0.000D+00 0.000D+00
 Coeff-En:   0.255D+00 0.745D+00
 Coeff:     -0.717D-01 0.102D+00-0.122D-01-0.176D-01 0.927D-01 0.930D-01
 Coeff:      0.339D+00 0.474D+00
 Gap=     0.188 Goal=   None    Shift=    0.000
 RMSDP=3.29D-04 MaxDP=4.88D-02 DE=-2.77D-03 OVMax= 9.43D-03

 Cycle   9  Pass 1  IDiag  1:
 RMSU=  1.86D-04    CP:  8.74D-01  1.04D+00  9.41D-02  8.14D-01  2.60D-01
                    CP:  6.32D-01  8.03D-01  6.54D-01
 E= -2483.04702631532     Delta-E=       -0.002410822090 Rises=F Damp=F
 DIIS: error= 1.96D-03 at cycle   9 NSaved=   9.
 NSaved= 9 IEnMin= 9 EnMin= -2483.04702631532     IErMin= 9 ErrMin= 1.96D-03
 ErrMax= 1.96D-03  0.00D+00 EMaxC= 1.00D-01 BMatC= 2.29D-03 BMatP= 5.56D-03
 IDIUse=3 WtCom= 9.80D-01 WtEn= 1.96D-02
 Coeff-Com: -0.361D-01 0.554D-01-0.423D-02 0.312D-02 0.186D-01 0.215D-01
 Coeff-Com: -0.467D-02 0.185D+00 0.761D+00
 Coeff-En:   0.000D+00 0.000D+00 0.000D+00 0.000D+00 0.000D+00 0.000D+00
 Coeff-En:   0.000D+00 0.000D+00 0.100D+01
 Coeff:     -0.353D-01 0.543D-01-0.414D-02 0.306D-02 0.183D-01 0.210D-01
 Coeff:     -0.458D-02 0.181D+00 0.766D+00
 Gap=     0.185 Goal=   None    Shift=    0.000
 RMSDP=1.69D-04 MaxDP=2.51D-02 DE=-2.41D-03 OVMax= 3.97D-03

 Cycle  10  Pass 1  IDiag  1:
 RMSU=  8.29D-05    CP:  8.77D-01  1.07D+00  9.08D-02  8.20D-01  2.55D-01
                    CP:  6.40D-01  8.24D-01  7.50D-01  1.20D+00
 E= -2483.04795102676     Delta-E=       -0.000924711441 Rises=F Damp=F
 DIIS: error= 7.60D-04 at cycle  10 NSaved=  10.
 NSaved=10 IEnMin=10 EnMin= -2483.04795102676     IErMin=10 ErrMin= 7.60D-04
 ErrMax= 7.60D-04  0.00D+00 EMaxC= 1.00D-01 BMatC= 4.98D-04 BMatP= 2.29D-03
 IDIUse=3 WtCom= 9.92D-01 WtEn= 7.60D-03
 Coeff-Com: -0.624D-02 0.109D-01 0.777D-03 0.121D-01-0.147D-01-0.905D-02
 Coeff-Com: -0.148D+00-0.888D-01 0.561D+00 0.682D+00
 Coeff-En:   0.000D+00 0.000D+00 0.000D+00 0.000D+00 0.000D+00 0.000D+00
 Coeff-En:   0.000D+00 0.000D+00 0.000D+00 0.100D+01
 Coeff:     -0.619D-02 0.108D-01 0.771D-03 0.120D-01-0.146D-01-0.898D-02
 Coeff:     -0.147D+00-0.881D-01 0.557D+00 0.685D+00
 Gap=     0.183 Goal=   None    Shift=    0.000
 RMSDP=7.45D-05 MaxDP=7.02D-03 DE=-9.25D-04 OVMax= 3.62D-03

 Cycle  11  Pass 1  IDiag  1:
 RMSU=  3.89D-05    CP:  8.77D-01  1.07D+00  8.95D-02  8.21D-01  2.50D-01
                    CP:  6.42D-01  7.99D-01  8.30D-01  1.47D+00  8.73D-01
 E= -2483.04822432748     Delta-E=       -0.000273300721 Rises=F Damp=F
 DIIS: error= 1.37D-04 at cycle  11 NSaved=  11.
 NSaved=11 IEnMin=11 EnMin= -2483.04822432748     IErMin=11 ErrMin= 1.37D-04
 ErrMax= 1.37D-04  0.00D+00 EMaxC= 1.00D-01 BMatC= 2.00D-05 BMatP= 4.98D-04
 IDIUse=3 WtCom= 9.99D-01 WtEn= 1.37D-03
 Coeff-Com:  0.668D-03-0.600D-03 0.263D-03 0.642D-02-0.674D-02-0.452D-02
 Coeff-Com: -0.684D-01-0.741D-01 0.178D+00 0.380D+00 0.589D+00
 Coeff-En:   0.000D+00 0.000D+00 0.000D+00 0.000D+00 0.000D+00 0.000D+00
 Coeff-En:   0.000D+00 0.000D+00 0.000D+00 0.000D+00 0.100D+01
 Coeff:      0.667D-03-0.599D-03 0.262D-03 0.641D-02-0.673D-02-0.452D-02
 Coeff:     -0.683D-01-0.740D-01 0.178D+00 0.380D+00 0.589D+00
 Gap=     0.183 Goal=   None    Shift=    0.000
 RMSDP=2.66D-05 MaxDP=3.72D-03 DE=-2.73D-04 OVMax= 8.91D-04

 Cycle  12  Pass 1  IDiag  1:
 RMSU=  1.53D-05    CP:  8.77D-01  1.07D+00  8.93D-02  8.22D-01  2.49D-01
                    CP:  6.42D-01  7.90D-01  8.34D-01  1.50D+00  8.71D-01
                    CP:  7.84D-01
 E= -2483.04823502356     Delta-E=       -0.000010696084 Rises=F Damp=F
 DIIS: error= 5.54D-05 at cycle  12 NSaved=  12.
 NSaved=12 IEnMin=12 EnMin= -2483.04823502356     IErMin=12 ErrMin= 5.54D-05
 ErrMax= 5.54D-05  0.00D+00 EMaxC= 1.00D-01 BMatC= 3.60D-06 BMatP= 2.00D-05
 IDIUse=1 WtCom= 1.00D+00 WtEn= 0.00D+00
 Coeff-Com: -0.283D-03 0.168D-03 0.123D-03 0.603D-03-0.736D-03 0.792D-03
 Coeff-Com: -0.954D-02-0.226D-01 0.208D-01 0.108D+00 0.326D+00 0.576D+00
 Coeff:     -0.283D-03 0.168D-03 0.123D-03 0.603D-03-0.736D-03 0.792D-03
 Coeff:     -0.954D-02-0.226D-01 0.208D-01 0.108D+00 0.326D+00 0.576D+00
 Gap=     0.183 Goal=   None    Shift=    0.000
 RMSDP=1.51D-05 MaxDP=2.23D-03 DE=-1.07D-05 OVMax= 2.91D-04

 Cycle  13  Pass 1  IDiag  1:
 RMSU=  4.20D-06    CP:  8.77D-01  1.07D+00  8.94D-02  8.21D-01  2.50D-01
                    CP:  6.43D-01  7.92D-01  8.24D-01  1.50D+00  8.97D-01
                    CP:  7.74D-01  6.20D-01
 E= -2483.04823777835     Delta-E=       -0.000002754792 Rises=F Damp=F
 DIIS: error= 9.20D-06 at cycle  13 NSaved=  13.
 NSaved=13 IEnMin=13 EnMin= -2483.04823777835     IErMin=13 ErrMin= 9.20D-06
 ErrMax= 9.20D-06  0.00D+00 EMaxC= 1.00D-01 BMatC= 1.11D-07 BMatP= 3.60D-06
 IDIUse=1 WtCom= 1.00D+00 WtEn= 0.00D+00
 Coeff-Com: -0.551D-04 0.134D-04 0.102D-04 0.110D-03-0.239D-04 0.466D-03
 Coeff-Com: -0.159D-02-0.761D-02 0.255D-02 0.330D-01 0.118D+00 0.259D+00
 Coeff-Com:  0.597D+00
 Coeff:     -0.551D-04 0.134D-04 0.102D-04 0.110D-03-0.239D-04 0.466D-03
 Coeff:     -0.159D-02-0.761D-02 0.255D-02 0.330D-01 0.118D+00 0.259D+00
 Coeff:      0.597D+00
 Gap=     0.183 Goal=   None    Shift=    0.000
 RMSDP=1.99D-06 MaxDP=1.30D-04 DE=-2.75D-06 OVMax= 6.74D-05

 Cycle  14  Pass 1  IDiag  1:
 RMSU=  1.33D-06    CP:  8.77D-01  1.07D+00  8.94D-02  8.21D-01  2.50D-01
                    CP:  6.43D-01  7.94D-01  8.25D-01  1.49D+00  8.99D-01
                    CP:  7.81D-01  6.43D-01  9.23D-01
 E= -2483.04823785150     Delta-E=       -0.000000073145 Rises=F Damp=F
 DIIS: error= 4.07D-06 at cycle  14 NSaved=  14.
 NSaved=14 IEnMin=14 EnMin= -2483.04823785150     IErMin=14 ErrMin= 4.07D-06
 ErrMax= 4.07D-06  0.00D+00 EMaxC= 1.00D-01 BMatC= 2.67D-08 BMatP= 1.11D-07
 IDIUse=1 WtCom= 1.00D+00 WtEn= 0.00D+00
 Coeff-Com:  0.570D-05-0.915D-05-0.358D-05-0.427D-04 0.812D-04 0.180D-03
 Coeff-Com:  0.597D-03-0.108D-02-0.210D-02 0.235D-02 0.186D-01 0.634D-01
 Coeff-Com:  0.351D+00 0.567D+00
 Coeff:      0.570D-05-0.915D-05-0.358D-05-0.427D-04 0.812D-04 0.180D-03
 Coeff:      0.597D-03-0.108D-02-0.210D-02 0.235D-02 0.186D-01 0.634D-01
 Coeff:      0.351D+00 0.567D+00
 Gap=     0.183 Goal=   None    Shift=    0.000
 RMSDP=6.90D-07 MaxDP=5.34D-05 DE=-7.31D-08 OVMax= 4.27D-05

 Cycle  15  Pass 1  IDiag  1:
 RMSU=  4.10D-07    CP:  8.77D-01  1.07D+00  8.94D-02  8.21D-01  2.50D-01
                    CP:  6.43D-01  7.94D-01  8.25D-01  1.49D+00  8.99D-01
                    CP:  7.80D-01  6.54D-01  9.56D-01  7.45D-01
 E= -2483.04823787494     Delta-E=       -0.000000023439 Rises=F Damp=F
 DIIS: error= 1.79D-06 at cycle  15 NSaved=  15.
 NSaved=15 IEnMin=15 EnMin= -2483.04823787494     IErMin=15 ErrMin= 1.79D-06
 ErrMax= 1.79D-06  0.00D+00 EMaxC= 1.00D-01 BMatC= 1.99D-09 BMatP= 2.67D-08
 IDIUse=1 WtCom= 1.00D+00 WtEn= 0.00D+00
 Coeff-Com:  0.161D-04-0.191D-04-0.131D-05-0.179D-04 0.296D-04 0.284D-04
 Coeff-Com:  0.276D-03 0.248D-04-0.903D-03-0.125D-02-0.359D-03 0.865D-02
 Coeff-Com:  0.118D+00 0.275D+00 0.600D+00
 Coeff:      0.161D-04-0.191D-04-0.131D-05-0.179D-04 0.296D-04 0.284D-04
 Coeff:      0.276D-03 0.248D-04-0.903D-03-0.125D-02-0.359D-03 0.865D-02
 Coeff:      0.118D+00 0.275D+00 0.600D+00
 Gap=     0.183 Goal=   None    Shift=    0.000
 RMSDP=2.31D-07 MaxDP=3.24D-05 DE=-2.34D-08 OVMax= 1.83D-05

 Cycle  16  Pass 1  IDiag  1:
 RMSU=  1.62D-07    CP:  8.77D-01  1.07D+00  8.94D-02  8.21D-01  2.50D-01
                    CP:  6.43D-01  7.94D-01  8.25D-01  1.49D+00  8.99D-01
                    CP:  7.81D-01  6.54D-01  9.73D-01  8.00D-01  1.01D+00
 E= -2483.04823787750     Delta-E=       -0.000000002558 Rises=F Damp=F
 DIIS: error= 1.39D-06 at cycle  16 NSaved=  16.
 NSaved=16 IEnMin=16 EnMin= -2483.04823787750     IErMin=16 ErrMin= 1.39D-06
 ErrMax= 1.39D-06  0.00D+00 EMaxC= 1.00D-01 BMatC= 1.05D-09 BMatP= 1.99D-09
 IDIUse=1 WtCom= 1.00D+00 WtEn= 0.00D+00
 Coeff-Com: -0.158D-05 0.162D-05-0.963D-06-0.787D-05 0.142D-04-0.187D-04
 Coeff-Com:  0.654D-04 0.388D-03 0.154D-03-0.134D-02-0.481D-02-0.115D-01
 Coeff-Com: -0.288D-01-0.108D-01 0.246D+00 0.810D+00
 Coeff:     -0.158D-05 0.162D-05-0.963D-06-0.787D-05 0.142D-04-0.187D-04
 Coeff:      0.654D-04 0.388D-03 0.154D-03-0.134D-02-0.481D-02-0.115D-01
 Coeff:     -0.288D-01-0.108D-01 0.246D+00 0.810D+00
 Gap=     0.183 Goal=   None    Shift=    0.000
 RMSDP=2.16D-07 MaxDP=5.15D-05 DE=-2.56D-09 OVMax= 1.99D-05

 Cycle  17  Pass 1  IDiag  1:
 RMSU=  1.16D-07    CP:  8.77D-01  1.07D+00  8.94D-02  8.21D-01  2.50D-01
                    CP:  6.43D-01  7.94D-01  8.25D-01  1.49D+00  8.99D-01
                    CP:  7.80D-01  6.54D-01  9.89D-01  8.15D-01  1.12D+00
                    CP:  1.20D+00
 E= -2483.04823787932     Delta-E=       -0.000000001826 Rises=F Damp=F
 DIIS: error= 8.97D-07 at cycle  17 NSaved=  17.
 NSaved=17 IEnMin=17 EnMin= -2483.04823787932     IErMin=17 ErrMin= 8.97D-07
 ErrMax= 8.97D-07  0.00D+00 EMaxC= 1.00D-01 BMatC= 5.54D-11 BMatP= 1.05D-09
 IDIUse=1 WtCom= 1.00D+00 WtEn= 0.00D+00
 Coeff-Com: -0.596D-05 0.776D-05 0.802D-06 0.395D-05-0.111D-04-0.864D-05
 Coeff-Com: -0.808D-04 0.426D-06 0.312D-03 0.302D-03-0.154D-03-0.310D-02
 Coeff-Com: -0.342D-01-0.759D-01-0.169D+00-0.846D-02 0.129D+01
 Coeff:     -0.596D-05 0.776D-05 0.802D-06 0.395D-05-0.111D-04-0.864D-05
 Coeff:     -0.808D-04 0.426D-06 0.312D-03 0.302D-03-0.154D-03-0.310D-02
 Coeff:     -0.342D-01-0.759D-01-0.169D+00-0.846D-02 0.129D+01
 Gap=     0.183 Goal=   None    Shift=    0.000
 RMSDP=1.70D-07 MaxDP=3.82D-05 DE=-1.83D-09 OVMax= 1.93D-05

 Cycle  18  Pass 1  IDiag  1:
 RMSU=  5.84D-08    CP:  8.77D-01  1.07D+00  8.94D-02  8.21D-01  2.50D-01
                    CP:  6.43D-01  7.94D-01  8.25D-01  1.49D+00  8.99D-01
                    CP:  7.80D-01  6.54D-01  9.96D-01  8.37D-01  1.24D+00
                    CP:  1.71D+00  1.59D+00
 E= -2483.04823787999     Delta-E=       -0.000000000670 Rises=F Damp=F
 DIIS: error= 4.00D-07 at cycle  18 NSaved=  18.
 NSaved=18 IEnMin=18 EnMin= -2483.04823787999     IErMin=18 ErrMin= 4.00D-07
 ErrMax= 4.00D-07  0.00D+00 EMaxC= 1.00D-01 BMatC= 1.08D-10 BMatP= 5.54D-11
 IDIUse=1 WtCom= 1.00D+00 WtEn= 0.00D+00
 Coeff-Com:  0.713D-06-0.523D-06 0.538D-06 0.638D-05-0.121D-04-0.150D-05
 Coeff-Com: -0.644D-04-0.124D-03 0.541D-04 0.458D-03 0.118D-02 0.162D-02
 Coeff-Com: -0.914D-02-0.303D-01-0.132D+00-0.178D+00 0.586D+00 0.761D+00
 Coeff:      0.713D-06-0.523D-06 0.538D-06 0.638D-05-0.121D-04-0.150D-05
 Coeff:     -0.644D-04-0.124D-03 0.541D-04 0.458D-03 0.118D-02 0.162D-02
 Coeff:     -0.914D-02-0.303D-01-0.132D+00-0.178D+00 0.586D+00 0.761D+00
 Gap=     0.183 Goal=   None    Shift=    0.000
 RMSDP=6.18D-08 MaxDP=9.96D-06 DE=-6.70D-10 OVMax= 7.93D-06

 Cycle  19  Pass 1  IDiag  1:
 RMSU=  1.95D-08    CP:  8.77D-01  1.07D+00  8.94D-02  8.21D-01  2.50D-01
                    CP:  6.43D-01  7.94D-01  8.25D-01  1.50D+00  8.99D-01
                    CP:  7.80D-01  6.54D-01  9.96D-01  8.37D-01  1.28D+00
                    CP:  1.84D+00  1.93D+00  9.74D-01
 E= -2483.04823788016     Delta-E=       -0.000000000163 Rises=F Damp=F
 DIIS: error= 1.04D-07 at cycle  19 NSaved=  19.
 NSaved=19 IEnMin=19 EnMin= -2483.04823788016     IErMin=19 ErrMin= 1.04D-07
 ErrMax= 1.04D-07  0.00D+00 EMaxC= 1.00D-01 BMatC= 4.30D-12 BMatP= 5.54D-11
 IDIUse=1 WtCom= 1.00D+00 WtEn= 0.00D+00
 Coeff-Com:  0.123D-05-0.149D-05 0.116D-06 0.171D-05-0.272D-05 0.155D-05
 Coeff-Com: -0.912D-05-0.549D-04-0.493D-04 0.134D-03 0.573D-03 0.143D-02
 Coeff-Com:  0.308D-02 0.306D-02-0.186D-01-0.645D-01-0.433D-01 0.277D+00
 Coeff-Com:  0.841D+00
 Coeff:      0.123D-05-0.149D-05 0.116D-06 0.171D-05-0.272D-05 0.155D-05
 Coeff:     -0.912D-05-0.549D-04-0.493D-04 0.134D-03 0.573D-03 0.143D-02
 Coeff:      0.308D-02 0.306D-02-0.186D-01-0.645D-01-0.433D-01 0.277D+00
 Coeff:      0.841D+00
 Gap=     0.183 Goal=   None    Shift=    0.000
 RMSDP=3.47D-08 MaxDP=7.46D-06 DE=-1.63D-10 OVMax= 2.78D-06

 Cycle  20  Pass 1  IDiag  1:
 RMSU=  7.74D-09    CP:  8.77D-01  1.07D+00  8.94D-02  8.21D-01  2.50D-01
                    CP:  6.43D-01  7.94D-01  8.25D-01  1.50D+00  8.99D-01
                    CP:  7.80D-01  6.54D-01  9.97D-01  8.39D-01  1.29D+00
                    CP:  1.91D+00  2.02D+00  1.07D+00  1.07D+00
 E= -2483.04823788014     Delta-E=        0.000000000015 Rises=F Damp=F
 DIIS: error= 6.35D-08 at cycle  20 NSaved=  20.
 NSaved=20 IEnMin=19 EnMin= -2483.04823788016     IErMin=20 ErrMin= 6.35D-08
 ErrMax= 6.35D-08  0.00D+00 EMaxC= 1.00D-01 BMatC= 2.01D-12 BMatP= 4.30D-12
 IDIUse=1 WtCom= 1.00D+00 WtEn= 0.00D+00
 Coeff-Com: -0.173D-06 0.168D-06 0.890D-09-0.367D-06 0.661D-06 0.609D-06
 Coeff-Com:  0.256D-05-0.276D-05-0.811D-05 0.105D-04 0.887D-04 0.270D-03
 Coeff-Com:  0.152D-02 0.272D-02 0.492D-02-0.311D-02-0.621D-01 0.142D-01
 Coeff-Com:  0.267D+00 0.774D+00
 Coeff:     -0.173D-06 0.168D-06 0.890D-09-0.367D-06 0.661D-06 0.609D-06
 Coeff:      0.256D-05-0.276D-05-0.811D-05 0.105D-04 0.887D-04 0.270D-03
 Coeff:      0.152D-02 0.272D-02 0.492D-02-0.311D-02-0.621D-01 0.142D-01
 Coeff:      0.267D+00 0.774D+00
 Gap=     0.183 Goal=   None    Shift=    0.000
 RMSDP=9.67D-09 MaxDP=1.02D-06 DE= 1.50D-11 OVMax= 4.94D-07

 Cycle  21  Pass 1  IDiag  1:
 Restarting incremental Fock formation.
 E= -2483.04823788019     Delta-E=       -0.000000000047 Rises=F Damp=F
 DIIS: error= 5.64D-09 at cycle  21 NSaved=  20.
 NSaved=20 IEnMin=20 EnMin= -2483.04823788019     IErMin=20 ErrMin= 5.64D-09
 ErrMax= 5.64D-09  0.00D+00 EMaxC= 1.00D-01 BMatC= 2.49D-14 BMatP= 2.01D-12
 IDIUse=1 WtCom= 1.00D+00 WtEn= 0.00D+00
 Coeff-Com:  0.152D-07-0.304D-07-0.143D-06 0.296D-06-0.521D-07 0.678D-06
 Coeff-Com:  0.195D-05-0.593D-06-0.763D-05-0.118D-04-0.117D-04 0.282D-03
 Coeff-Com:  0.701D-03 0.305D-02 0.376D-02-0.155D-01-0.147D-01 0.124D-01
 Coeff-Com:  0.171D+00 0.839D+00
 Coeff:      0.152D-07-0.304D-07-0.143D-06 0.296D-06-0.521D-07 0.678D-06
 Coeff:      0.195D-05-0.593D-06-0.763D-05-0.118D-04-0.117D-04 0.282D-03
 Coeff:      0.701D-03 0.305D-02 0.376D-02-0.155D-01-0.147D-01 0.124D-01
 Coeff:      0.171D+00 0.839D+00
 Gap=     0.183 Goal=   None    Shift=    0.000
 RMSDP=1.92D-09 MaxDP=3.37D-07 DE=-4.68D-11 OVMax= 9.14D-08

 Error on total polarization charges =  0.02091
 SCF Done:  E(RB3LYP) =  -2483.04823788     A.U. after   21 cycles
            NFock= 21  Conv=0.19D-08     -V/T= 2.0021
 KE= 2.477749553475D+03 PE=-1.092888835662D+04 EE= 3.453710930464D+03
 Leave Link  502 at Thu May 22 16:18:56 2025, MaxMem=  2684354560 cpu:            2106.8 elap:              67.1
 (Enter /afs/ics.muni.cz/software/g16-C.01/avx2/g16/l508.exe)
 QCSCF skips out because SCF is already converged.
 Leave Link  508 at Thu May 22 16:19:00 2025, MaxMem=  2684354560 cpu:               0.7 elap:               0.1
 (Enter /afs/ics.muni.cz/software/g16-C.01/avx2/g16/l801.exe)
 DoSCS=F DFT=T ScalE2(SS,OS)=  1.000000  1.000000
 ExpMin= 1.33D-02 ExpMax= 2.71D+05 ExpMxC= 9.06D+03 IAcc=3 IRadAn=         5 AccDes= 0.00D+00
 HarFok:  IExCor=  205 AccDes= 0.00D+00 IRadAn=         5 IDoV=-2 UseB2=F ITyADJ=14
 ICtDFT= 12500011 ScaDFX=  1.000000  1.000000  1.000000  1.000000
 GSVD:  LWork=       -1073 too small for GESVD, short by        4640 words or        4640 for optimal perf.
 Largest valence mixing into a core orbital is  3.76D-04
 Largest core mixing into a valence orbital is  6.20D-05
 Range of M.O.s used for correlation:    30   582
 NBasis=   582 NAE=    89 NBE=    89 NFC=    29 NFV=     0
 NROrb=    553 NOA=    60 NOB=    60 NVA=   493 NVB=   493

 **** Warning!!: The largest alpha MO coefficient is  0.10091425D+03

 Leave Link  801 at Thu May 22 16:19:08 2025, MaxMem=  2684354560 cpu:              39.6 elap:               2.0
 (Enter /afs/ics.muni.cz/software/g16-C.01/avx2/g16/l914.exe)
 RHF ground state
 Two-electron integrals replicated using symmetry.
 MDV=  2684354560 DFT=T DoStab=F Mixed=T DoRPA=T DoScal=F NonHer=T
 NEqPCM:  Using equilibrium solvation (IEInf=0, Eps=  78.3553, EpsInf=   1.7778)
 Making orbital integer symmetry assigments:
 Orbital symmetries:
       Occupied  (A) (A) (A) (A) (A) (A) (A) (A) (A) (A) (A) (A)
                 (A) (A) (A) (A) (A) (A) (A) (A) (A) (A) (A) (A)
                 (A) (A) (A) (A) (A) (A) (A) (A) (A) (A) (A) (A)
                 (A) (A) (A) (A) (A) (A) (A) (A) (A) (A) (A) (A)
                 (A) (A) (A) (A) (A) (A) (A) (A) (A) (A) (A) (A)
                 (A) (A) (A) (A) (A) (A) (A) (A) (A) (A) (A) (A)
                 (A) (A) (A) (A) (A) (A) (A) (A) (A) (A) (A) (A)
                 (A) (A) (A) (A) (A)
       Virtual   (A) (A) (A) (A) (A) (A) (A) (A) (A) (A) (A) (A)
                 (A) (A) (A) (A) (A) (A) (A) (A) (A) (A) (A) (A)
                 (A) (A) (A) (A) (A) (A) (A) (A) (A) (A) (A) (A)
                 (A) (A) (A) (A) (A) (A) (A) (A) (A) (A) (A) (A)
                 (A) (A) (A) (A) (A) (A) (A) (A) (A) (A) (A) (A)
                 (A) (A) (A) (A) (A) (A) (A) (A) (A) (A) (A) (A)
                 (A) (A) (A) (A) (A) (A) (A) (A) (A) (A) (A) (A)
                 (A) (A) (A) (A) (A) (A) (A) (A) (A) (A) (A) (A)
                 (A) (A) (A) (A) (A) (A) (A) (A) (A) (A) (A) (A)
                 (A) (A) (A) (A) (A) (A) (A) (A) (A) (A) (A) (A)
                 (A) (A) (A) (A) (A) (A) (A) (A) (A) (A) (A) (A)
                 (A) (A) (A) (A) (A) (A) (A) (A) (A) (A) (A) (A)
                 (A) (A) (A) (A) (A) (A) (A) (A) (A) (A) (A) (A)
                 (A) (A) (A) (A) (A) (A) (A) (A) (A) (A) (A) (A)
                 (A) (A) (A) (A) (A) (A) (A) (A) (A) (A) (A) (A)
                 (A) (A) (A) (A) (A) (A) (A) (A) (A) (A) (A) (A)
                 (A) (A) (A) (A) (A) (A) (A) (A) (A) (A) (A) (A)
                 (A) (A) (A) (A) (A) (A) (A) (A) (A) (A) (A) (A)
                 (A) (A) (A) (A) (A) (A) (A) (A) (A) (A) (A) (A)
                 (A) (A) (A) (A) (A) (A) (A) (A) (A) (A) (A) (A)
                 (A) (A) (A) (A) (A) (A) (A) (A) (A) (A) (A) (A)
                 (A) (A) (A) (A) (A) (A) (A) (A) (A) (A) (A) (A)
                 (A) (A) (A) (A) (A) (A) (A) (A) (A) (A) (A) (A)
                 (A) (A) (A) (A) (A) (A) (A) (A) (A) (A) (A) (A)
                 (A) (A) (A) (A) (A) (A) (A) (A) (A) (A) (A) (A)
                 (A) (A) (A) (A) (A) (A) (A) (A) (A) (A) (A) (A)
                 (A) (A) (A) (A) (A) (A) (A) (A) (A) (A) (A) (A)
                 (A) (A) (A) (A) (A) (A) (A) (A) (A) (A) (A) (A)
                 (A) (A) (A) (A) (A) (A) (A) (A) (A) (A) (A) (A)
                 (A) (A) (A) (A) (A) (A) (A) (A) (A) (A) (A) (A)
                 (A) (A) (A) (A) (A) (A) (A) (A) (A) (A) (A) (A)
                 (A) (A) (A) (A) (A) (A) (A) (A) (A) (A) (A) (A)
                 (A) (A) (A) (A) (A) (A) (A) (A) (A) (A) (A) (A)
                 (A) (A) (A) (A) (A) (A) (A) (A) (A) (A) (A) (A)
                 (A) (A) (A) (A) (A) (A) (A) (A) (A) (A) (A) (A)
                 (A) (A) (A) (A) (A) (A) (A) (A) (A) (A) (A) (A)
                 (A) (A) (A) (A) (A) (A) (A) (A) (A) (A) (A) (A)
                 (A) (A) (A) (A) (A) (A) (A) (A) (A) (A) (A) (A)
                 (A) (A) (A) (A) (A) (A) (A) (A) (A) (A) (A) (A)
                 (A) (A) (A) (A) (A) (A) (A) (A) (A) (A) (A) (A)
                 (A) (A) (A) (A) (A) (A) (A) (A) (A) (A) (A) (A)
                 (A)
    24 initial guesses have been made.
 Convergence on wavefunction:    0.000001000000000
 Davidson Disk Diagonalization:  ConvIn= 1.00D-06 SkipCon=T Conv= 1.00D-06.
 Max sub-space:  2000 roots to seek:    24 dimension of matrix:        59160
 Iteration     1 Dimension    24 NMult     0 NNew     24
 CISAX will form    24 AO SS matrices at one time.
 NMat=    24 NSing=    24 JSym2X= 0.
 FoFJK:  IHMeth= 1 ICntrl=       0 DoSepK=F KAlg= 0 I1Cent=           0 FoldK=F
 IRaf= 880000000 NMat=      48 IRICut=      60 DoRegI=T DoRafI=T ISym2E= 0 IDoP0=3 IntGTp=3.
 FoFCou: FMM=F IPFlag=           0 FMFlag=      100000 FMFlg1=           0
         NFxFlg=           0 DoJE=F BraDBF=F KetDBF=F FulRan=T
         wScrn=  0.000000 ICntrl=         0 IOpCl=  0 I1Cent=           0 NGrid=           0
         NMat0=   48 NMatS0=     24 NMatT0=    0 NMatD0=   48 NMtDS0=    0 NMtDT0=    0
 Symmetry not used in FoFCou.
 Raff kept on since  86.82% of shell-pairs survive, threshold=   0.20 IRatSp=87.
 New state      1 was old state      5
 New state      2 was old state      7
 New state      3 was old state      6
 New state      4 was old state      8
 New state      5 was old state     14
 New state      6 was old state     13
 Excitation Energies [eV] at current iteration:
 Root      1 :     2.856126235469892
 Root      2 :     2.893723963915783
 Root      3 :     3.442611438291896
 Root      4 :     3.486042949559366
 Root      5 :     3.693000112507316
 Root      6 :     3.780417719323332
 Root      7 :     4.222363750692105
 Root      8 :     4.271198231215426
 Root      9 :     4.359989389951223
 Root     10 :     4.422012219602173
 Root     11 :     4.483000030830195
 Root     12 :     4.487483079961381
 Root     13 :     4.523826396936576
 Root     14 :     4.555918998925486
 Root     15 :     4.665740550076007
 Root     16 :     4.711766820866131
 Root     17 :     4.843996245682561
 Root     18 :     4.845648647074071
 Root     19 :     5.082446451015691
 Root     20 :     5.158625999751742
 Root     21 :     5.245636654942615
 Root     22 :     5.418259658838868
 Root     23 :     5.946081505719929
 Root     24 :     6.932629422841230
 Iteration     2 Dimension    36 NMult    24 NNew     12
 CISAX will form    12 AO SS matrices at one time.
 NMat=    12 NSing=    12 JSym2X= 0.
 New state      1 was old state      2
 Root      1 not converged, maximum delta is    0.257251053108178
 New state      2 was old state      1
 Root      2 not converged, maximum delta is    0.163481416342127
 New state      3 was old state      5
 Root      3 not converged, maximum delta is    0.395100251565468
 Root      4 not converged, maximum delta is    0.151084947772536
 New state      5 was old state      3
 Root      5 not converged, maximum delta is    0.266948604512138
 Root      6 not converged, maximum delta is    0.224973287452918
 Excitation Energies [eV] at current iteration:
 Root      1 :     2.171439251724941   Change is   -0.722284712190842
 Root      2 :     2.244653442986574   Change is   -0.611472792483318
 Root      3 :     2.430061475028990   Change is   -1.262938637478326
 Root      4 :     3.057961156340048   Change is   -0.428081793219318
 Root      5 :     3.197600223468558   Change is   -0.245011214823338
 Root      6 :     3.268299365570624   Change is   -0.512118353752708
 Iteration     3 Dimension    48 NMult    36 NNew     12
 CISAX will form    12 AO SS matrices at one time.
 NMat=    12 NSing=    12 JSym2X= 0.
 Root      1 not converged, maximum delta is    0.010373822174705
 Root      2 not converged, maximum delta is    0.008851711446010
 Root      3 not converged, maximum delta is    0.012498508594360
 Root      4 not converged, maximum delta is    0.007494502894465
 Root      5 not converged, maximum delta is    0.010759300823681
 Root      6 not converged, maximum delta is    0.011735917637020
 Excitation Energies [eV] at current iteration:
 Root      1 :     2.140474915890127   Change is   -0.030964335834814
 Root      2 :     2.221241588209335   Change is   -0.023411854777239
 Root      3 :     2.393508512023976   Change is   -0.036552963005014
 Root      4 :     3.036484250836332   Change is   -0.021476905503716
 Root      5 :     3.179129704688419   Change is   -0.018470518780139
 Root      6 :     3.239749748189116   Change is   -0.028549617381508
 Iteration     4 Dimension    60 NMult    48 NNew     12
 CISAX will form    12 AO SS matrices at one time.
 NMat=    12 NSing=    12 JSym2X= 0.
 Root      1 not converged, maximum delta is    0.003015558313056
 Root      2 not converged, maximum delta is    0.001411482502827
 Root      3 not converged, maximum delta is    0.004602371661109
 Root      4 not converged, maximum delta is    0.004898009548953
 Root      5 not converged, maximum delta is    0.003422186040722
 Root      6 not converged, maximum delta is    0.005704009006368
 Excitation Energies [eV] at current iteration:
 Root      1 :     2.138523071139951   Change is   -0.001951844750176
 Root      2 :     2.219695001171915   Change is   -0.001546587037420
 Root      3 :     2.389698080184993   Change is   -0.003810431838984
 Root      4 :     3.033727617837586   Change is   -0.002756632998745
 Root      5 :     3.177091923038852   Change is   -0.002037781649567
 Root      6 :     3.236261260630460   Change is   -0.003488487558656
 Iteration     5 Dimension    72 NMult    60 NNew     12
 CISAX will form    12 AO SS matrices at one time.
 NMat=    12 NSing=    12 JSym2X= 0.
 Root      1 not converged, maximum delta is    0.000196017661085
 Root      2 not converged, maximum delta is    0.000243279784423
 Root      3 not converged, maximum delta is    0.000354862376460
 Root      4 not converged, maximum delta is    0.000319822512847
 Root      5 not converged, maximum delta is    0.000509477628863
 Root      6 not converged, maximum delta is    0.000473877409640
 Excitation Energies [eV] at current iteration:
 Root      1 :     2.138424785500857   Change is   -0.000098285639095
 Root      2 :     2.219593107919410   Change is   -0.000101893252505
 Root      3 :     2.389520611199931   Change is   -0.000177468985062
 Root      4 :     3.033611046785476   Change is   -0.000116571052110
 Root      5 :     3.176958940924912   Change is   -0.000132982113939
 Root      6 :     3.236106423954357   Change is   -0.000154836676103
 Iteration     6 Dimension    84 NMult    72 NNew     12
 CISAX will form    12 AO SS matrices at one time.
 NMat=    12 NSing=    12 JSym2X= 0.
 Root      1 not converged, maximum delta is    0.000125967345386
 Root      2 not converged, maximum delta is    0.000118288314493
 Root      3 not converged, maximum delta is    0.000174882830873
 Root      4 not converged, maximum delta is    0.000183981730852
 Root      5 not converged, maximum delta is    0.000147347507449
 Root      6 not converged, maximum delta is    0.000148643827260
 Excitation Energies [eV] at current iteration:
 Root      1 :     2.138415483123349   Change is   -0.000009302377508
 Root      2 :     2.219586267244050   Change is   -0.000006840675360
 Root      3 :     2.389507033473896   Change is   -0.000013577726035
 Root      4 :     3.033602384505217   Change is   -0.000008662280259
 Root      5 :     3.176946632750000   Change is   -0.000012308174912
 Root      6 :     3.236087473078964   Change is   -0.000018950875393
 Iteration     7 Dimension    96 NMult    84 NNew     12
 CISAX will form    12 AO SS matrices at one time.
 NMat=    12 NSing=    12 JSym2X= 0.
 Root      1 not converged, maximum delta is    0.000036205404347
 Root      2 not converged, maximum delta is    0.000029477380524
 Root      3 not converged, maximum delta is    0.000032781867549
 Root      4 not converged, maximum delta is    0.000058722385462
 Root      5 not converged, maximum delta is    0.000043268698384
 Root      6 not converged, maximum delta is    0.000080098019063
 Excitation Energies [eV] at current iteration:
 Root      1 :     2.138414978428347   Change is   -0.000000504695002
 Root      2 :     2.219585620355026   Change is   -0.000000646889024
 Root      3 :     2.389506515865846   Change is   -0.000000517608050
 Root      4 :     3.033601713985985   Change is   -0.000000670519232
 Root      5 :     3.176946120148531   Change is   -0.000000512601469
 Root      6 :     3.236086088346728   Change is   -0.000001384732236
 Iteration     8 Dimension   108 NMult    96 NNew     12
 CISAX will form    12 AO SS matrices at one time.
 NMat=    12 NSing=    12 JSym2X= 0.
 Root      1 not converged, maximum delta is    0.000007593907175
 Root      2 not converged, maximum delta is    0.000008908499037
 Root      3 not converged, maximum delta is    0.000004664349284
 Root      4 not converged, maximum delta is    0.000009820833045
 Root      5 not converged, maximum delta is    0.000016340614351
 Root      6 not converged, maximum delta is    0.000015536202736
 Excitation Energies [eV] at current iteration:
 Root      1 :     2.138414933424891   Change is   -0.000000045003456
 Root      2 :     2.219585589378859   Change is   -0.000000030976168
 Root      3 :     2.389506501529231   Change is   -0.000000014336615
 Root      4 :     3.033601680304038   Change is   -0.000000033681947
 Root      5 :     3.176946055241918   Change is   -0.000000064906613
 Root      6 :     3.236085991289160   Change is   -0.000000097057568
 Iteration     9 Dimension   120 NMult   108 NNew     12
 CISAX will form    12 AO SS matrices at one time.
 NMat=    12 NSing=    12 JSym2X= 0.
 Root      1 not converged, maximum delta is    0.000001453434116
 Root      2 not converged, maximum delta is    0.000002223383458
 Root      3 not converged, maximum delta is    0.000001813818102
 Root      4 not converged, maximum delta is    0.000002216535259
 Root      5 not converged, maximum delta is    0.000003101323762
 Root      6 not converged, maximum delta is    0.000005825114331
 Excitation Energies [eV] at current iteration:
 Root      1 :     2.138414932401956   Change is   -0.000000001022935
 Root      2 :     2.219585587579511   Change is   -0.000000001799347
 Root      3 :     2.389506500810954   Change is   -0.000000000718277
 Root      4 :     3.033601677813533   Change is   -0.000000002490505
 Root      5 :     3.176946052444616   Change is   -0.000000002797303
 Root      6 :     3.236085983957644   Change is   -0.000000007331516
 Iteration    10 Dimension   132 NMult   120 NNew     12
 CISAX will form    12 AO SS matrices at one time.
 NMat=    12 NSing=    12 JSym2X= 0.
 Root      1 has converged.
 Root      2 has converged.
 Root      3 has converged.
 Root      4 has converged.
 Root      5 has converged.
 Root      6 not converged, maximum delta is    0.000001151746650
 Excitation Energies [eV] at current iteration:
 Root      1 :     2.138414932373123   Change is   -0.000000000028833
 Root      2 :     2.219585587499251   Change is   -0.000000000080260
 Root      3 :     2.389506500735816   Change is   -0.000000000075137
 Root      4 :     3.033601677624030   Change is   -0.000000000189503
 Root      5 :     3.176946052322660   Change is   -0.000000000121955
 Root      6 :     3.236085983516743   Change is   -0.000000000440901
 Iteration    11 Dimension   134 NMult   132 NNew      2
 CISAX will form     2 AO SS matrices at one time.
 NMat=     2 NSing=     2 JSym2X= 0.
 Root      1 has converged.
 Root      2 has converged.
 Root      3 has converged.
 Root      4 has converged.
 Root      5 has converged.
 Root      6 has converged.
 Excitation Energies [eV] at current iteration:
 Root      1 :     2.138414932373162   Change is    0.000000000000039
 Root      2 :     2.219585587498659   Change is   -0.000000000000593
 Root      3 :     2.389506500735920   Change is    0.000000000000103
 Root      4 :     3.033601677623895   Change is   -0.000000000000136
 Root      5 :     3.176946052322454   Change is   -0.000000000000207
 Root      6 :     3.236085983501146   Change is   -0.000000000015597
 Convergence achieved on expansion vectors.
 ***********************************************************************
 Excited states from <AA,BB:AA,BB> singles matrix:
 ***********************************************************************
 
 1PDM for each excited state written to RWF  633
 Ground to excited state transition densities written to RWF  633
 Ground to excited state transition electric dipole moments (Au):
       state          X           Y           Z        Dip. S.      Osc.
         1         0.0287      0.0000      0.1469      0.0224      0.0012
         2        -0.0000      0.0377     -0.0000      0.0014      0.0001
         3        -0.3406     -0.0000      0.1132      0.1288      0.0075
         4        -0.0000     -0.0734      0.0000      0.0054      0.0004
         5        -0.0519     -0.0000     -0.0709      0.0077      0.0006
         6        -0.0000      0.1705     -0.0000      0.0291      0.0023
 Ground to excited state transition velocity dipole moments (Au):
       state          X           Y           Z        Dip. S.      Osc.
         1        -0.0022     -0.0000     -0.0109      0.0001      0.0010
         2         0.0000     -0.0028      0.0000      0.0000      0.0001
         3         0.0288     -0.0000     -0.0094      0.0009      0.0070
         4         0.0000      0.0081      0.0000      0.0001      0.0004
         5         0.0064      0.0000      0.0095      0.0001      0.0007
         6        -0.0000     -0.0212      0.0000      0.0005      0.0025
 Ground to excited state transition magnetic dipole moments (Au):
       state          X           Y           Z
         1         1.5602      0.0000     -0.6416
         2        -0.0000      1.7998      0.0000
         3         0.5853      0.0000      1.6584
         4        -0.0000      0.0127      0.0000
         5         0.0275      0.0000     -0.2176
         6        -0.0000     -0.2112     -0.0000
 Ground to excited state transition velocity quadrupole moments (Au):
       state          XX          YY          ZZ          XY          XZ          YZ
         1        -0.0000      0.0000     -0.0000      0.0048      0.0000     -0.0043
         2         0.0052      0.0187     -0.0233     -0.0000     -0.0125     -0.0000
         3         0.0000      0.0000     -0.0000      0.0379     -0.0000     -0.0349
         4        -0.0098      0.0004      0.0228      0.0000      0.0042     -0.0000
         5        -0.0000     -0.0000     -0.0000     -0.0291     -0.0000      0.0213
         6         0.0124     -0.0377      0.0226     -0.0000      0.0608      0.0000
 <0|del|b> * <b|rxdel|0> + <0|del|b> * <b|delr+rdel|0>
 Rotatory Strengths (R) in cgs (10**-40 erg-esu-cm/Gauss)
       state          XX          YY          ZZ    R(velocity)    E-M Angle
         1        31.2446     16.4377    -15.3644     10.7726       78.96
         2       -21.9674     -0.0000    -21.6647    -14.5440       90.00
         3       -64.1483      2.5857     71.9568      3.4647       88.61
         4         0.2176     -0.0000      0.4344      0.2173       90.00
         5        -7.1162     -4.4942      0.1187     -3.8306      139.00
         6        17.1682     -0.0000      9.4889      8.8857       90.00
 1/2[<0|r|b>*<b|rxdel|0> + (<0|rxdel|b>*<b|r|0>)*]
 Rotatory Strengths (R) in cgs (10**-40 erg-esu-cm/Gauss)
       state          XX          YY          ZZ     R(length)
         1       -31.7106     -0.0000     66.6400     11.6431
         2        -0.0000    -48.0130      0.0000    -16.0043
         3       140.9799      0.0000   -132.7991      2.7269
         4        -0.0000      0.6578     -0.0000      0.2193
         5         1.0077      0.0000    -10.9140     -3.3021
         6        -0.0000     25.4632     -0.0000      8.4877
  1/2[<0|del|b>*<b|r|0> + (<0|r|b>*<b|del|0>)*] (Au)
       state          X           Y           Z        Dip. S.   Osc.(frdel)
         1        -0.0001     -0.0000     -0.0016      0.0017      0.0011
         2        -0.0000     -0.0001     -0.0000      0.0001      0.0001
         3        -0.0098      0.0000     -0.0011      0.0109      0.0073
         4        -0.0000     -0.0006      0.0000      0.0006      0.0004
         5        -0.0003     -0.0000     -0.0007      0.0010      0.0007
         6         0.0000     -0.0036     -0.0000      0.0036      0.0024

 Excitation energies and oscillator strengths:
 
 Excited State   1:      Singlet-A      2.1384 eV  579.79 nm  f=0.0012  <S**2>=0.000
      76 -> 90        -0.27396
      78 -> 91         0.14447
      84 -> 91         0.12415
      85 -> 90         0.35248
      86 -> 90         0.40690
      87 -> 91         0.21087
      89 -> 90         0.10952
 
 Excited State   2:      Singlet-A      2.2196 eV  558.59 nm  f=0.0001  <S**2>=0.000
      75 -> 90         0.17329
      76 -> 91        -0.16129
      78 -> 90         0.27973
      81 -> 90        -0.20942
      83 -> 90        -0.17588
      84 -> 90         0.22288
      85 -> 91         0.20649
      86 -> 91         0.24446
      87 -> 90         0.32892
 
 Excited State   3:      Singlet-A      2.3895 eV  518.87 nm  f=0.0075  <S**2>=0.000
      77 -> 91         0.40816
      81 -> 91         0.13535
      83 -> 91         0.38150
      87 -> 91         0.34972
 This state for optimization and/or second-order correction.
 Total Energy, E(TD-HF/TD-DFT) =  -2482.96042513    
 Copying the excited state density for this state as the 1-particle RhoCI density.
 
 Excited State   4:      Singlet-A      3.0336 eV  408.70 nm  f=0.0004  <S**2>=0.000
      76 -> 91        -0.19639
      77 -> 90        -0.16580
      78 -> 90        -0.12564
      84 -> 90        -0.14086
      85 -> 91         0.31452
      86 -> 91         0.38641
      87 -> 90        -0.35104
      89 -> 91         0.11617
 
 Excited State   5:      Singlet-A      3.1769 eV  390.26 nm  f=0.0006  <S**2>=0.000
      75 -> 91         0.16409
      78 -> 91         0.26292
      81 -> 91        -0.24120
      83 -> 91        -0.28683
      84 -> 91         0.24804
      85 -> 90        -0.17354
      86 -> 90        -0.20206
      87 -> 91         0.31907
      88 -> 91         0.10375
 
 Excited State   6:      Singlet-A      3.2361 eV  383.13 nm  f=0.0023  <S**2>=0.000
      75 -> 90        -0.10803
      77 -> 90         0.29118
      81 -> 90         0.20479
      83 -> 90         0.46845
      85 -> 91         0.14317
      86 -> 91         0.17833
      87 -> 90         0.24702
 SavETr:  write IOETrn=   770 NScale= 10 NData=  16 NLR=1 NState=    6 LETran=     118.
 The selected state is a singlet.
 CISGrd: IGrad=3 NXY=2 DFT=T
 CISAX will form     1 AO SS matrices at one time.
 NMat=     1 NSing=     1 JSym2X= 0.
 GePol: Maximum number of non-zero 1st derivatives   =     228
 GePol: Maximum number of non-zero 2nd derivatives   =     228
 Leave Link  914 at Thu May 22 16:23:45 2025, MaxMem=  2684354560 cpu:            8656.7 elap:             271.9
 (Enter /afs/ics.muni.cz/software/g16-C.01/avx2/g16/l1002.exe)
 Minotr:  Closed shell wavefunction.
          Computing CIS/TDA/TD derivatives.
          Using Z-Vector for PSCF gradient.
          Skipping F1 and S1 gradient terms here.
          IDoAtm=111111111111111111111111111111111
 NEqPCM:  Using equilibrium solvation (IEInf=0, Eps=  78.3553, EpsInf=   1.7778)
          Frozen-core window.
          Direct CPHF calculation.
          Differentiating once with respect to electric field.
                with respect to dipole field.
          Differentiating once with respect to nuclear coordinates.
          Requested convergence is 1.0D-10 RMS, and 1.0D-09 maximum.
          NewPWx=F KeepS1=T KeepF1=T KeepIn=T MapXYZ=F SortEE=F KeepMc=T.
 Two-electron integral symmetry used by symmetrizing perturbed Fock matrices.
          MDV=    2684354560 using IRadAn=       5.
          Solving linear equations separately, MaxMat=     384.
          There are     1 degrees of freedom in the 1st order CPHF.  IDoFFX=0 NUNeed=     1.
 FoFJK:  IHMeth= 1 ICntrl=       0 DoSepK=F KAlg= 0 I1Cent=           0 FoldK=F
 IRaf= 900000000 NMat=       1 IRICut=       1 DoRegI=T DoRafI=F ISym2E=-1 IDoP0=0 IntGTp=1.
 FoFCou: FMM=F IPFlag=           0 FMFlag=      100000 FMFlg1=           0
         NFxFlg=           0 DoJE=F BraDBF=F KetDBF=F FulRan=T
         wScrn=  0.000000 ICntrl=         0 IOpCl=  0 I1Cent=           0 NGrid=           0
         NMat0=    1 NMatS0=      1 NMatT0=    0 NMatD0=    1 NMtDS0=    0 NMtDT0=    0
 Petite list used in FoFCou.
 LinEq1:  Iter=  0 NonCon=     1 RMS=3.44D-03 Max=3.59D-01 NDo=     1
 AX will form     1 AO Fock derivatives at one time.
 LinEq1:  Iter=  1 NonCon=     1 RMS=2.36D-03 Max=1.09D-01 NDo=     1
 LinEq1:  Iter=  2 NonCon=     1 RMS=2.11D-03 Max=1.27D-01 NDo=     1
 LinEq1:  Iter=  3 NonCon=     1 RMS=1.06D-03 Max=5.63D-02 NDo=     1
 LinEq1:  Iter=  4 NonCon=     1 RMS=8.51D-04 Max=4.68D-02 NDo=     1
 LinEq1:  Iter=  5 NonCon=     1 RMS=7.66D-04 Max=2.88D-02 NDo=     1
 LinEq1:  Iter=  6 NonCon=     1 RMS=4.24D-04 Max=2.15D-02 NDo=     1
 LinEq1:  Iter=  7 NonCon=     1 RMS=3.88D-04 Max=1.73D-02 NDo=     1
 LinEq1:  Iter=  8 NonCon=     1 RMS=2.11D-04 Max=1.15D-02 NDo=     1
 LinEq1:  Iter=  9 NonCon=     1 RMS=1.42D-04 Max=9.37D-03 NDo=     1
 LinEq1:  Iter= 10 NonCon=     1 RMS=9.80D-05 Max=5.64D-03 NDo=     1
 LinEq1:  Iter= 11 NonCon=     1 RMS=7.78D-05 Max=5.42D-03 NDo=     1
 LinEq1:  Iter= 12 NonCon=     1 RMS=5.34D-05 Max=2.72D-03 NDo=     1
 LinEq1:  Iter= 13 NonCon=     1 RMS=3.16D-05 Max=1.20D-03 NDo=     1
 LinEq1:  Iter= 14 NonCon=     1 RMS=1.06D-05 Max=2.46D-04 NDo=     1
 LinEq1:  Iter= 15 NonCon=     1 RMS=5.47D-06 Max=1.52D-04 NDo=     1
 LinEq1:  Iter= 16 NonCon=     1 RMS=2.08D-06 Max=1.30D-04 NDo=     1
 LinEq1:  Iter= 17 NonCon=     1 RMS=8.23D-07 Max=4.83D-05 NDo=     1
 LinEq1:  Iter= 18 NonCon=     1 RMS=4.47D-07 Max=2.28D-05 NDo=     1
 LinEq1:  Iter= 19 NonCon=     1 RMS=1.64D-07 Max=7.98D-06 NDo=     1
 LinEq1:  Iter= 20 NonCon=     1 RMS=9.28D-08 Max=3.36D-06 NDo=     1
 LinEq1:  Iter= 21 NonCon=     1 RMS=7.94D-08 Max=2.88D-06 NDo=     1
 LinEq1:  Iter= 22 NonCon=     1 RMS=5.20D-08 Max=2.08D-06 NDo=     1
 LinEq1:  Iter= 23 NonCon=     1 RMS=1.48D-08 Max=5.17D-07 NDo=     1
 LinEq1:  Iter= 24 NonCon=     1 RMS=1.02D-08 Max=4.23D-07 NDo=     1
 LinEq1:  Iter= 25 NonCon=     1 RMS=7.26D-09 Max=2.84D-07 NDo=     1
 LinEq1:  Iter= 26 NonCon=     1 RMS=2.55D-09 Max=1.15D-07 NDo=     1
 LinEq1:  Iter= 27 NonCon=     1 RMS=1.68D-09 Max=1.16D-07 NDo=     1
 LinEq1:  Iter= 28 NonCon=     1 RMS=1.42D-09 Max=7.80D-08 NDo=     1
 LinEq1:  Iter= 29 NonCon=     1 RMS=9.58D-10 Max=3.76D-08 NDo=     1
 LinEq1:  Iter= 30 NonCon=     1 RMS=4.55D-10 Max=1.71D-08 NDo=     1
 LinEq1:  Iter= 31 NonCon=     1 RMS=1.11D-10 Max=4.00D-09 NDo=     1
 LinEq1:  Iter= 32 NonCon=     1 RMS=6.90D-11 Max=2.49D-09 NDo=     1
 LinEq1:  Iter= 33 NonCon=     1 RMS=3.40D-11 Max=1.05D-09 NDo=     1
 LinEq1:  Iter= 34 NonCon=     0 RMS=1.46D-11 Max=4.90D-10 NDo=     1
 Linear equations converged to 1.000D-10 1.000D-09 after    34 iterations.
          There are     1 degrees of freedom in the 1st order CPHF.  IDoFFX=0 NUNeed=     1.
 End of Minotr F.D. properties file   721 does not exist.
 End of Minotr F.D. properties file   722 does not exist.
 End of Minotr F.D. properties file   788 does not exist.
 Leave Link 1002 at Thu May 22 16:25:58 2025, MaxMem=  2684354560 cpu:            4051.8 elap:             127.8
 (Enter /afs/ics.muni.cz/software/g16-C.01/avx2/g16/l1101.exe)
 Using compressed Sx but separate Hx and Fx, NAtomX=    33.
 Will process     34 centers per pass.
[...]
 00218156,-0.00005897,-0.00074913,0.01021956,0.01327959,0.01152488,0.53
 856095,0.00015284,0.00175620,0.00180447,-0.00263995,-0.00264598,0.0034
 6294,0.00305181,0.01664777,-0.00737252,0.00317319,-0.00488719,0.001491
 67,-0.02160436,-0.12387198,-0.03316993,-0.01161546,-0.01098806,-0.0046
 7885,-0.00161485,0.00091089,0.00032628,0.00013176,0.00006749,-0.000038
 92,0.00002275,-0.00003884,0.00010714,0.00000098,-0.00038092,-0.0002429
 1,0.00020770,-0.00007096,0.00012775,0.00004641,0.00003705,-0.00001531,
 -0.00013586,-0.00005054,-0.00009469,0.00006489,0.00001234,0.00000719,0
 .00030962,0.00005574,-0.00015345,-0.00003736,0.00003237,0.00003709,0.0
 0039582,-0.00019150,0.00001620,-0.00013353,0.00014333,-0.00008018,-0.0
 0073407,0.00026756,-0.00036178,-0.00001893,-0.00001026,-0.00000086,0.0
 0000177,-0.00000594,-0.00000106,0.00000424,-0.00000923,0.00000346,-0.0
 0007663,-0.00001559,-0.00000257,-0.00011174,-0.00000297,0.00000862,-0.
 00003018,-0.00000022,0.00000829,0.00035555,0.00012605,-0.00072581,-0.0
 1212533,-0.01938838,-0.01762419,0.03611884,0.46029146,-0.00115510,0.00
 149941,-0.00079852,-0.00009862,0.00309214,0.00127042,-0.01348840,-0.02
 358847,-0.02413824,0.00056966,0.00426984,0.00017672,-0.02747208,-0.053
 43768,-0.11611165,0.00667303,0.01038742,0.00890050,0.00379796,-0.00027
 468,-0.00139246,-0.00008447,0.00012971,0.00003225,-0.00001975,-0.00001
 346,0.00013156,0.00006552,0.00135190,0.00043455,0.00023500,-0.00003976
 ,0.00016555,-0.00010788,0.00002658,0.00009380,0.00002109,0.00000217,0.
 00010702,0.00000145,0.00000152,-0.00006585,-0.00005185,-0.00009178,-0.
 00004088,0.00003454,-0.00003711,-0.00002107,0.00008117,0.00022732,-0.0
 0005559,-0.00004504,-0.00003527,-0.00000602,-0.00021418,-0.00008913,-0
 .00002671,0.00001282,-0.00001208,0.00001609,0.00000373,0.00001082,-0.0
 0000220,0.00000046,0.00000398,-0.00001145,0.00003955,0.00000032,-0.000
 01906,0.00050630,-0.00004787,0.00005957,-0.00003065,-0.00002968,-0.000
 05517,0.00095110,0.00086276,0.00212119,-0.00129691,-0.00192819,-0.0015
 8552,-0.01600799,-0.03173244,0.53072769,-0.02929751,-0.02766881,-0.015
 52339,-0.00455744,0.00116386,0.00083408,0.01222675,-0.00640522,0.00395
 458,-0.00794656,0.00636319,0.00199012,0.01725576,-0.00954710,-0.001786
 02,-0.00827770,0.01080132,-0.00366496,-0.00349094,-0.00078176,-0.00192
 424,0.00043524,0.00123939,0.00054345,0.00021245,0.00039124,0.00049231,
 -0.00003116,-0.00081927,0.00086859,-0.00331062,-0.00410498,-0.00296775
 ,0.00044706,0.00053143,-0.00006558,-0.00769265,-0.00180852,0.00107094,
 0.00462033,0.00043513,-0.00250022,0.00727010,0.00241116,-0.00086114,0.
 00072700,-0.00039581,0.00008118,-0.01348965,0.00254874,-0.00418206,0.0
 0600812,-0.00476058,0.00367535,0.01911608,-0.00875752,0.00839243,0.000
 33581,0.00033223,-0.00005302,0.00018513,0.00021456,0.00013461,0.000298
 86,0.00018846,0.00004422,-0.00005624,-0.00003673,-0.00025318,0.0000803
 1,0.00027803,-0.00002627,-0.00007898,-0.00007466,-0.00011984,-0.000093
 34,-0.00012107,0.00115459,-0.00283193,-0.00453301,-0.00312898,-0.10078
 289,0.03576315,0.01016992,0.62081061,-0.01857517,-0.00489700,-0.004872
 79,-0.00153346,-0.00095651,0.00364270,0.00099757,0.00271024,-0.0077006
 5,0.00118495,0.00021147,0.00291761,0.00252476,-0.02207973,-0.00421340,
 0.00693952,-0.00063961,0.00374196,0.00016205,-0.00139481,-0.00066799,-
 0.00000129,0.00029452,-0.00005960,0.00002003,0.00007832,0.00009205,-0.
 00004433,0.00013345,0.00027297,0.00187811,0.00078709,0.00086477,-0.000
 45690,0.00044698,0.00037599,-0.00354896,-0.00061005,0.00033321,0.00187
 775,0.00010360,-0.00099920,0.00301863,0.00125675,-0.00156513,0.0002526
 9,-0.00019148,-0.00022730,-0.00254874,0.00331336,-0.00081488,0.0004887
 3,-0.00141025,0.00059432,0.00252199,0.00039625,0.00053925,0.00013014,0
 .00005479,0.00001594,0.00000454,0.00001353,0.00005885,0.00018183,0.000
 08406,-0.00009208,0.00011014,0.00001008,-0.00021270,0.00027514,0.00013
 366,0.00001986,0.00001078,-0.00003612,-0.00008259,-0.00040979,-0.00228
 162,0.00054123,0.00014282,0.00233201,-0.00056349,0.03348412,-0.1253853
 5,-0.00243154,0.07644048,0.64658758,-0.00877915,-0.00941188,-0.0097732
 0,-0.00188945,0.00038982,0.00129927,0.00493283,-0.00360795,-0.00228557
 ,-0.00166052,0.00144384,0.00084313,0.01313673,-0.01531273,-0.00504940,
 -0.00174638,0.00441998,0.00077931,-0.00083945,-0.00047405,-0.00091958,
 0.00015510,0.00045891,0.00013898,0.00004031,0.00006260,0.00014582,0.00
 014626,-0.00021647,0.00048641,-0.00051319,0.00016141,0.00019971,-0.000
 29842,0.00011117,0.00016256,-0.00307385,-0.00035096,0.00058665,0.00176
 569,0.00005489,-0.00107730,0.00288244,0.00171437,0.00043728,0.00020191
 ,-0.00001616,-0.00005558,-0.00418205,0.00081485,-0.00124152,0.00176413
 ,-0.00151822,0.00112588,0.00523865,-0.00148630,0.00218395,0.00010520,0
 .00006500,-0.00001805,0.00004270,0.00003426,0.00005954,0.00014669,0.00
 006586,-0.00001797,0.00004806,0.00016500,-0.00014358,0.00007142,0.0001
 5645,-0.00004123,-0.00001618,-0.00002671,-0.00006358,-0.00024271,0.000
 06941,0.00047357,-0.00206747,-0.00191678,-0.00106700,0.00826528,-0.001
 04951,-0.08945166,0.15187623,0.17781246,0.34691171,0.00855088,0.010538
 02,0.00468550,0.00188485,-0.00034957,-0.00089601,-0.00424926,0.0018407
 3,-0.00030405,0.00277361,-0.00178359,-0.00060199,-0.00179493,0.0012407
 8,0.00061677,0.00466881,-0.00510962,0.00226227,0.00140395,0.00059449,0
 .00091019,-0.00018159,-0.00053758,-0.00024038,-0.00007822,-0.00014635,
 -0.00016161,-0.00006446,0.00023319,-0.00045686,0.00153343,0.00159927,0
 .00141485,-0.00010193,-0.00022617,0.00000621,0.00296219,0.00071388,-0.
 00052147,-0.00179416,-0.00017287,0.00103414,-0.00254031,-0.00070820,0.
 00015502,-0.00028720,0.00013352,-0.00004505,0.00600812,-0.00048873,0.0
 0176413,-0.00283549,0.00205363,-0.00166708,-0.00893892,0.00404266,-0.0
 0401585,-0.00013753,-0.00012846,0.00002438,-0.00007536,-0.00009475,-0.
 00005321,-0.00014069,-0.00006193,0.00000776,0.00004895,-0.00000516,0.0
 0012005,-0.00006437,-0.00013410,0.00002306,0.00001377,0.00004136,0.000
 05497,0.00035129,-0.00023890,-0.00046044,0.00059175,0.00046655,0.00012
 069,0.01106851,0.00983095,0.00226468,-0.15575372,-0.15905340,-0.085017
 15,0.21769185,0.01030412,0.00708386,0.00436031,0.00215113,0.00063732,-
 0.00335270,-0.00204495,-0.00151291,0.00664842,0.00001031,-0.00046405,-
 0.00202592,0.00840668,-0.00546186,-0.00056595,0.00074833,-0.00306796,-
 0.00021714,0.00034498,0.00128528,0.00100441,-0.00008271,-0.00042543,-0
 .00009490,-0.00001866,-0.00003123,-0.00001116,0.00001824,-0.00015716,-
 0.00036968,0.00010167,0.00080343,0.00041045,0.00016240,-0.00033622,-0.
 00017280,0.00329161,0.00066788,-0.00054178,-0.00191294,-0.00014601,0.0
 0111787,-0.00294385,-0.00102213,0.00040145,-0.00026744,0.00014331,0.00
 003527,0.00476058,-0.00141025,0.00151822,-0.00205362,0.00185350,-0.001
 30815,-0.00662117,0.00255791,-0.00284980,-0.00013765,-0.00009186,0.000
 00397,-0.00005536,-0.00006826,-0.00005668,-0.00017250,-0.00006281,0.00
 004870,-0.00001839,-0.00003968,0.00017170,-0.00023917,-0.00012429,-0.0
 0001041,-0.00003483,0.00006450,0.00006906,0.00034345,0.00052374,-0.000
 38774,-0.00166387,-0.00305247,-0.00217171,-0.01220721,-0.04368301,-0.0
 2839732,-0.12992052,-0.40407301,-0.16433588,0.20221554,0.44848902,0.00
 402150,0.00583704,0.00680702,0.00138659,-0.00000091,-0.00140928,-0.002
 06071,0.00048012,0.00209627,0.00119788,-0.00033920,-0.00069854,0.00056
 173,-0.00220939,0.00216050,0.00205974,-0.00333308,0.00046177,0.0005379
 3,0.00065349,0.00067851,-0.00009942,-0.00034879,-0.00011892,-0.0000362
 4,-0.00007184,-0.00006850,0.00001495,-0.00003170,-0.00029559,0.0010064
 0,0.00080178,0.00032303,0.00007594,-0.00006413,-0.00004356,0.00214506,
 0.00042606,-0.00038415,-0.00127982,-0.00009751,0.00076315,-0.00212939,
 -0.00084566,-0.00012819,-0.00018738,0.00008017,-0.00000602,0.00367535,
 -0.00059432,0.00112588,-0.00166708,0.00130816,-0.00099348,-0.00511905,
 0.00220704,-0.00241931,-0.00009428,-0.00007458,0.00000949,-0.00005128,
 -0.00005559,-0.00003776,-0.00007394,-0.00006257,-0.00000635,-0.0000294
 6,-0.00006552,0.00008485,-0.00012024,-0.00008419,0.00000349,-0.0000054
 1,0.00003977,0.00004350,0.00027168,0.00011578,-0.00038324,-0.00014607,
 -0.00074067,-0.00081255,-0.00600822,-0.02006462,0.01041532,-0.07371193
 ,-0.17323053,-0.16470597,0.13388303,0.22130910,0.15359650,-0.02492058,
 -0.02272165,-0.00266509,0.00347438,-0.00095105,-0.00116330,-0.00722354
 ,0.00380884,-0.00212375,0.00722102,-0.00159887,0.00185932,-0.00625047,
 -0.00539064,0.00207637,0.01753786,-0.01849571,0.00705476,0.00349596,0.
 00163128,0.00270971,-0.00058321,-0.00138145,-0.00064833,-0.00017095,-0
 .00031072,-0.00035955,0.00030023,0.00002033,-0.00087545,0.00880917,0.0
 0861846,0.00352098,-0.00114289,0.00016424,0.00056660,0.00534863,0.0007
 9350,-0.00180163,-0.00368311,-0.00018445,0.00246969,-0.00894526,-0.006
 14955,-0.00216918,-0.00118895,0.00073407,-0.00021419,0.01911605,-0.002
 52202,0.00523865,-0.00893891,0.00662116,-0.00511904,-0.03834697,0.0148
 0506,-0.02116944,-0.00044754,-0.00056948,0.00013270,-0.00024424,-0.000
 34583,-0.00011313,-0.00000856,-0.00024391,-0.00014583,-0.00002871,-0.0
 0014956,0.00011786,-0.00023036,-0.00005688,-0.00001032,0.00000041,0.00
 018763,0.00006059,0.00097546,-0.00139455,-0.00109654,0.00215041,0.0014
 9273,-0.00016125,-0.03258516,0.00730500,-0.01355047,-0.32955689,0.0489
 6059,-0.06788391,-0.08342932,-0.06899682,-0.05729854,0.48406577,-0.029
 09955,-0.04536346,-0.02433385,0.00190489,0.00007633,-0.00211584,-0.003
 36766,0.00022768,0.00238775,0.00056160,-0.00180010,-0.00462160,-0.0035
 0591,0.00088688,0.00246508,0.00709264,-0.02291569,0.00035228,0.0034510
 0,0.00148643,0.00252899,-0.00054542,-0.00139951,-0.00060819,-0.0001424
 5,-0.00045025,-0.00029990,0.00063471,-0.00038483,-0.00023840,0.0080812
 1,0.00700255,0.00465421,-0.00064252,0.00034882,0.00035980,0.00252521,0
 .00053146,-0.00047767,-0.00169826,-0.00016396,0.00090725,-0.00489322,-
 0.00185967,0.00082488,-0.00029472,0.00026754,0.00008912,0.00875750,0.0
 0039628,0.00148629,-0.00404266,0.00255790,-0.00220704,-0.01480504,0.00
 741282,-0.00584258,-0.00016442,-0.00018964,0.00005222,-0.00008276,-0.0
 0013118,-0.00004851,0.00010382,-0.00020311,-0.00018649,0.00043428,0.00
 039272,0.00004730,-0.00035539,0.00003957,-0.00006976,-0.00004780,0.000
 13126,0.00005986,0.00034581,0.00053638,-0.00100528,0.00054711,0.000370
 53,-0.00016090,0.02749547,0.00220875,0.00162669,0.03560013,-0.09236040
 ,-0.00087386,-0.06695430,0.00061188,-0.02931833,0.02873216,0.14574613,
 -0.00947915,-0.02365749,-0.02884195,0.00166841,0.00014314,-0.00150756,
 -0.00577556,0.00174301,0.00186742,-0.00172039,-0.00850635,-0.00500340,
 -0.00255543,0.00015337,0.00078801,0.00823452,-0.00946086,0.00388480,0.
 00145906,0.00095616,0.00136198,-0.00030331,-0.00056621,-0.00024868,-0.
 00003987,-0.00001890,-0.00007793,-0.00026010,-0.00003453,-0.00055904,0
 .00190160,0.00346701,0.00519343,-0.00043478,-0.00063926,0.00010158,-0.
 00011831,0.00011295,-0.00105030,0.00009277,-0.00004147,0.00030081,0.00
 460108,0.00364472,0.00023492,-0.00062738,0.00036170,-0.00002671,0.0083
 9241,-0.00053917,0.00218390,-0.00401584,0.00284979,-0.00241930,-0.0211
 6944,0.00584252,-0.01021710,-0.00019455,-0.00024195,0.00006139,-0.0000
 6432,-0.00016530,-0.00001887,-0.00015170,0.00006100,0.00019292,0.00061
 418,0.00047211,0.00015172,-0.00008767,-0.00004602,0.00002762,-0.000037
 93,0.00005838,0.00004663,0.00088749,-0.00132318,-0.00024954,0.00079374
 ,0.00067183,0.00006431,-0.00660277,-0.00576311,0.01798307,-0.07345193,
 0.00446037,-0.08332986,-0.05499592,-0.02814054,-0.00620614,0.15126320,
 0.05385379,0.10541609,0.00091137,0.00033680,0.00057511,0.00113161,0.00
 040670,-0.00022226,-0.00133080,-0.00019420,0.00135823,0.00028978,-0.00
 008005,-0.00019658,-0.01128434,-0.00296816,0.00364637,0.00047052,-0.00
 199031,-0.00162757,-0.00036416,0.00050767,0.00047148,-0.00002613,-0.00
 007881,-0.00001616,0.00000543,-0.00000134,-0.00002379,-0.00000075,-0.0
 0026223,-0.00011871,-0.00001684,0.00000095,0.00000983,0.00004502,-0.00
 002437,-0.00002994,0.00020876,0.00004055,-0.00007150,-0.00011851,-0.00
 000915,0.00008547,-0.00011503,-0.00003023,0.00002174,-0.00002289,0.000
 01892,0.00001282,0.00033581,-0.00013014,0.00010520,-0.00013753,0.00013
 765,-0.00009428,-0.00044754,0.00016442,-0.00019455,-0.00001320,-0.0000
 0463,-0.00000248,-0.00000245,-0.00000543,-0.00000426,-0.00001346,-0.00
 000479,0.00000670,-0.00001065,-0.00000932,0.00001911,-0.00009371,0.000
 00506,0.00000656,-0.00000112,0.00001132,0.00001434,0.00006528,0.000141
 65,-0.00017853,0.00049672,-0.00009577,-0.00013006,-0.25397115,-0.06607
 695,0.09292448,-0.01809807,-0.00502632,0.00699453,0.00276307,-0.001324
 38,-0.00224082,-0.00176409,0.00329542,-0.00069440,0.27524484,0.0000094
 1,-0.00164488,-0.00038463,0.00057519,0.00010430,-0.00005674,-0.0003214
 8,0.00043432,0.00124562,-0.00011732,0.00004089,-0.00009145,-0.01880841
 ,-0.00575914,0.00982609,-0.00283785,-0.00363683,-0.00383083,-0.0012083
 8,0.00065030,0.00050130,-0.00000732,-0.00005437,0.00003018,0.00000079,
 0.00000358,-0.00004913,-0.00000961,-0.00053286,-0.00018825,-0.00032982
 ,-0.00018135,-0.00012377,0.00007172,-0.00003372,-0.00005867,-0.0000004
 8,-0.00002998,-0.00004623,0.00000804,0.00001020,0.00002525,0.00000835,
 0.00003827,-0.00001687,0.00001480,-0.00001026,0.00001208,-0.00033223,0
 .00005479,-0.00006500,0.00012846,-0.00009186,0.00007458,0.00056948,-0.
 00018963,0.00024194,0.00000463,0.00001896,-0.00000782,0.00000429,0.000
 00472,0.00000030,-0.00001178,0.00000961,0.00001338,-0.00001351,-0.0000
 1466,0.00001360,-0.00019961,0.00003312,-0.00002062,0.00000527,0.000014
 20,0.00001901,0.00053500,0.00010236,-0.00046842,0.00029047,0.00029814,
 0.00055941,-0.06538250,-0.06452758,0.02378440,0.02343951,0.00761486,-0
 .01357329,-0.00041195,0.00031936,0.00221575,0.00403376,-0.00316634,0.0
 0276257,0.07143628,0.07382496,0.00008715,-0.00054485,0.00002425,0.0003
 2246,0.00000747,0.00016491,-0.00108285,0.00036174,0.00058542,0.0001162
 8,-0.00021874,-0.00003462,-0.01757858,-0.00411313,0.00719819,-0.002373
 88,-0.00312126,-0.00254520,-0.00092648,-0.00002856,0.00064215,-0.00004
 157,-0.00007560,-0.00002690,0.00003989,0.00006236,-0.00000789,-0.00002
 414,-0.00035443,-0.00012594,-0.00013306,-0.00012617,-0.00005729,0.0000
 5843,-0.00001826,-0.00003524,0.00002443,-0.00001049,-0.00004430,-0.000
 00944,0.00000256,0.00002693,0.00003809,0.00003386,-0.00001531,0.000000
 06,0.00000086,0.00001609,-0.00005302,-0.00001594,-0.00001805,0.0000243
 8,-0.00000396,0.00000949,0.00013270,-0.00005222,0.00006138,-0.00000248
 ,0.00000782,-0.00000449,0.00000304,0.00000155,-0.00000089,-0.00000982,
 0.00000236,0.00000844,-0.00001624,-0.00001160,0.00001195,-0.00013182,0
 .00000272,-0.00001610,0.00000690,0.00000453,0.00001289,-0.00028887,-0.
 00029962,-0.00015288,0.00036887,0.00036828,0.00070319,0.09404923,0.025
 76289,-0.08376350,-0.00012991,0.00328208,-0.00127481,-0.00029632,-0.00
 168792,0.00004840,0.00035129,0.00013142,0.00032467,-0.09844196,-0.0271
 8651,0.08955016,0.00025953,0.00050665,-0.00026900,0.00073727,0.0006038
 6,-0.00064188,-0.00070388,-0.00266529,0.00079128,-0.00017767,0.0006813
 8,-0.00020138,-0.00490881,0.00284424,-0.01410519,0.00159950,0.00090870
 ,-0.00052640,0.00013393,-0.00025711,0.00004685,-0.00002436,0.00000464,
 -0.00000569,0.00001030,0.00006031,0.00006792,-0.00001935,0.00009885,0.
 00002366,0.00008226,0.00003574,0.00005761,-0.00000162,-0.00000363,0.00
 000612,0.00010176,0.00001381,0.00000651,-0.00006459,-0.00000228,0.0000
 2493,-0.00009774,-0.00003329,0.00005522,-0.00000492,-0.00000177,0.0000
 0373,0.00018512,-0.00000453,0.00004270,-0.00007536,0.00005536,-0.00005
 128,-0.00024423,0.00008275,-0.00006432,-0.00000245,-0.00000429,0.00000
 304,-0.00000135,-0.00000005,-0.00000226,-0.00000573,-0.00000188,-0.000
 00175,0.00001509,0.00000058,0.00000271,0.00003836,-0.00000740,0.000003
 12,-0.00000740,-0.00000284,-0.00000188,-0.00043216,-0.00076465,0.00001
 938,0.00040126,0.00008443,0.00080958,-0.05016682,0.02001794,-0.0447290
 7,-0.00468331,0.00959096,-0.01960430,0.00015245,-0.00214298,0.00152146
 ,-0.00280565,0.00107912,0.00287231,0.00586421,-0.01114318,0.02591724,0
 .05484637,-0.00010921,-0.00089958,-0.00060595,0.00074554,0.00102254,-0
 .00107393,-0.00196849,-0.00548769,0.00111794,-0.00132436,0.00189649,-0
 .00094924,-0.00611084,0.00700859,-0.02630693,0.00120747,0.00164297,-0.
 00027989,0.00026678,-0.00013058,-0.00015527,-0.00002692,0.00001354,0.0
 0003821,-0.00001292,0.00003023,0.00006706,0.00002880,0.00006757,0.0000
 8495,-0.00002970,0.00000586,-0.00005186,-0.00000887,0.00000702,0.00001
 196,-0.00005693,0.00001532,0.00005317,0.00003031,-0.00000505,-0.000033
 84,-0.00002746,0.00003561,0.00009137,0.00001262,-0.00000593,-0.0000108
 2,-0.00021456,0.00001353,-0.00003426,0.00009475,-0.00006826,0.00005559
 ,0.00034583,-0.00013118,0.00016531,0.00000543,0.00000472,-0.00000155,0
 .00000005,0.00000080,0.00000193,0.00000816,0.00000084,-0.00000508,0.00
 002315,0.00001452,-0.00000254,0.00002581,0.00000404,-0.00000574,-0.000
 01208,0.00000286,-0.00000476,-0.00027750,-0.00030437,0.00053481,0.0004
 7162,0.00134168,0.00052426,0.01852553,-0.08640248,0.09490949,0.0015935
 6,-0.01024663,0.02617046,0.00106105,0.00018957,-0.00384113,0.00355434,
 -0.00084374,-0.00247007,0.00181317,-0.00370349,0.00783677,-0.01963414,
 0.09491068,0.00041566,-0.00026163,-0.00033433,0.00028312,0.00085748,-0
 .00119821,-0.00027044,-0.00492978,0.00245665,-0.00117825,0.00115796,-0
 .00078718,-0.00334202,0.00551693,-0.02000747,0.00073522,0.00079257,0.0
 0134793,0.00006538,-0.00009267,0.00020657,-0.00001673,-0.00002750,-0.0
 0000281,0.00004850,0.00012269,0.00004949,0.00000522,0.00002510,0.00003
 499,-0.00003412,0.00000306,-0.00001885,0.00002302,-0.00002022,-0.00001
 029,0.00015558,0.00004577,0.00001186,-0.00009572,-0.00001392,0.0000447
 1,-0.00018165,-0.00002163,0.00008702,-0.00000521,0.00000106,-0.0000022
 0,0.00013462,-0.00005886,0.00005954,-0.00005321,0.00005668,-0.00003776
 ,-0.00011313,0.00004851,-0.00001887,-0.00000426,-0.00000030,-0.0000008
 9,-0.00000226,-0.00000193,-0.00000202,-0.00001001,-0.00000177,0.000002
 28,0.00001982,0.00000779,0.00001014,0.00000266,-0.00001187,-0.00000481
 ,-0.00001024,0.00000138,0.00000050,-0.00116237,-0.00061473,0.00019245,
 0.00038893,0.00004991,0.00069221,-0.04236367,0.09000873,-0.25508976,-0
 .00093221,-0.00183174,0.00468211,0.00038569,-0.00040071,0.00009990,0.0
 0114721,0.00058126,-0.00042888,-0.00196412,0.00484277,-0.01126511,0.04
 792901,-0.09583041,0.27923111\\-0.00000019,0.03511444,0.00000003,-0.00
 123408,0.00027546,-0.00006459,0.00323609,-0.00060103,0.00077796,-0.001
 09601,0.00017550,-0.00072775,-0.00155810,-0.00073558,0.00058253,0.0179
 6106,-0.02456758,0.00786846,0.00329588,0.00095082,0.00196098,-0.000401
 63,-0.00049306,-0.00028357,0.00001661,-0.00008849,-0.00010600,-0.00329
 676,0.00094948,-0.00196035,-0.01796022,-0.02456793,-0.00786871,0.00155
 755,-0.00073549,-0.00058206,-0.00323665,-0.00060072,-0.00077885,0.0012
 3433,0.00027534,0.00006470,0.00109648,0.00017554,0.00072820,0.00015344
 ,-0.00047962,0.00003027,-0.00029572,0.00775575,-0.00149311,-0.00210986
 ,-0.00029413,-0.00042752,-0.01423544,0.00107367,-0.00884765,0.00010943
 ,0.00028943,-0.00003097,0.00006405,-0.00007851,0.00005305,-0.00059249,
 0.00035107,0.00034048,-0.00057674,-0.00109064,0.00034814,0.00040176,-0
 .00049250,0.00028378,-0.00001621,-0.00008835,0.00010525,0.00057661,-0.
 00109075,-0.00034813,0.00059252,0.00035109,-0.00034069,-0.00015393,-0.
 00047993,-0.00002975,0.00029565,0.00775703,0.00149329,0.00210947,-0.00
 029497,0.00042718,0.01423585,0.00107351,0.00884775,-0.00010871,0.00028
 967,0.00003065,-0.00006405,-0.00007853,-0.00005302\\\@


 DEMOCRATS BUY MOST OF THE BOOKS THAT HAVE BEEN
 BANNED; REPUBLICANS FORM CENSORSHIP COMMITTEES AND
 READ THEM AS A GROUP.
 Job cpu time:       0 days 14 hours 15 minutes 48.3 seconds.
 Elapsed time:       0 days  0 hours 26 minutes 56.2 seconds.
 File lengths (MBytes):  RWF=   4144 Int=      0 D2E=      0 Chk=     99 Scr=      1
 Normal termination of Gaussian 16 at Thu May 22 16:45:46 2025.
