 Entering Gaussian System, Link 0=/home2/zdrahala/programs/a/bin/G16C-h//g16
 Input=CrO_komplex_symm.inp
 Output=CrO_komplex_symm.out
 Initial command:
 /home2/zdrahala/programs/a/bin/G16C-h/l1.exe "/scratch/slurm_jobs/zdrahala/236370/Gau-1599935.inp" -scrdir="/scratch/slurm_jobs/zdrahala/236370/"
 Entering Link 1 = /home2/zdrahala/programs/a/bin/G16C-h/l1.exe PID=   1599937.
  
 Copyright (c) 1988-2019, Gaussian, Inc.  All Rights Reserved.
  
 This is part of the Gaussian(R) 16 program.  It is based on
 the Gaussian(R) 09 system (copyright 2009, Gaussian, Inc.),
 the Gaussian(R) 03 system (copyright 2003, Gaussian, Inc.),
 the Gaussian(R) 98 system (copyright 1998, Gaussian, Inc.),
 the Gaussian(R) 94 system (copyright 1995, Gaussian, Inc.),
 the Gaussian 92(TM) system (copyright 1992, Gaussian, Inc.),
 the Gaussian 90(TM) system (copyright 1990, Gaussian, Inc.),
 the Gaussian 88(TM) system (copyright 1988, Gaussian, Inc.),
 the Gaussian 86(TM) system (copyright 1986, Carnegie Mellon
 University), and the Gaussian 82(TM) system (copyright 1983,
 Carnegie Mellon University). Gaussian is a federally registered
 trademark of Gaussian, Inc.
  
 This software contains proprietary and confidential information,
 including trade secrets, belonging to Gaussian, Inc.
  
 This software is provided under written license and may be
 used, copied, transmitted, or stored only in accord with that
 written license.
  
 The following legend is applicable only to US Government
 contracts under FAR:
  
                    RESTRICTED RIGHTS LEGEND
  
 Use, reproduction and disclosure by the US Government is
 subject to restrictions as set forth in subparagraphs (a)
 and (c) of the Commercial Computer Software - Restricted
 Rights clause in FAR 52.227-19.
  
 Gaussian, Inc.
 340 Quinnipiac St., Bldg. 40, Wallingford CT 06492
  
  
 ---------------------------------------------------------------
 Warning -- This program may not be used in any manner that
 competes with the business of Gaussian, Inc. or will provide
 assistance to any competitor of Gaussian, Inc.  The licensee
 of this program is prohibited from giving any competitor of
 Gaussian, Inc. access to this program.  By using this program,
 the user acknowledges that Gaussian, Inc. is engaged in the
 business of creating and licensing software in the field of
 computational chemistry and represents and warrants to the
 licensee that it is not a competitor of Gaussian, Inc. and that
 it will not use this program in any manner prohibited above.
 ---------------------------------------------------------------
  

 Cite this work as:
 Gaussian 16, Revision C.01,
 M. J. Frisch, G. W. Trucks, H. B. Schlegel, G. E. Scuseria, 
 M. A. Robb, J. R. Cheeseman, G. Scalmani, V. Barone, 
 G. A. Petersson, H. Nakatsuji, X. Li, M. Caricato, A. V. Marenich, 
 J. Bloino, B. G. Janesko, R. Gomperts, B. Mennucci, H. P. Hratchian, 
 J. V. Ortiz, A. F. Izmaylov, J. L. Sonnenberg, D. Williams-Young, 
 F. Ding, F. Lipparini, F. Egidi, J. Goings, B. Peng, A. Petrone, 
 T. Henderson, D. Ranasinghe, V. G. Zakrzewski, J. Gao, N. Rega, 
 G. Zheng, W. Liang, M. Hada, M. Ehara, K. Toyota, R. Fukuda, 
 J. Hasegawa, M. Ishida, T. Nakajima, Y. Honda, O. Kitao, H. Nakai, 
 T. Vreven, K. Throssell, J. A. Montgomery, Jr., J. E. Peralta, 
 F. Ogliaro, M. J. Bearpark, J. J. Heyd, E. N. Brothers, K. N. Kudin, 
 V. N. Staroverov, T. A. Keith, R. Kobayashi, J. Normand, 
 K. Raghavachari, A. P. Rendell, J. C. Burant, S. S. Iyengar, 
 J. Tomasi, M. Cossi, J. M. Millam, M. Klene, C. Adamo, R. Cammi, 
 J. W. Ochterski, R. L. Martin, K. Morokuma, O. Farkas, 
 J. B. Foresman, and D. J. Fox, Gaussian, Inc., Wallingford CT, 2019.
 
 ******************************************
 Gaussian 16:  ES64L-G16RevC.01  3-Jul-2019
                21-May-2025 
 ******************************************
 %nproc=36
 Will use up to   36 processors via shared memory.
 %mem=32GB
 %chk=CrO_komplex.chk
 -------------------------------------------------
 #b3lyp/GEN opt scrf=(cpcm,solvent=water) scf(xqc)
 -------------------------------------------------
 1/18=20,19=15,26=3,38=1/1,3;
 2/9=110,12=2,17=6,18=5,40=1/2;
 3/5=7,11=2,25=1,30=1,70=2101,71=1,72=1,74=-5/1,2,3;
 4//1;
 5/5=2,8=3,13=1,38=5,53=1/2,8;
 6/7=2,8=2,9=2,10=2,28=1/1;
 7//1,2,3,16;
 1/18=20,19=15,26=3/3(2);
 2/9=110/2;
 99//99;
 2/9=110/2;
 3/5=7,6=1,11=2,25=1,30=1,70=2105,71=1,72=1,74=-5,82=7/1,2,3;
 4/5=5,16=3,69=1/1;
 5/5=2,8=3,13=1,38=5,53=1/2,8;
 7//1,2,3,16;
 1/18=20,19=15,26=3/3(-5);
 2/9=110/2;
 6/7=2,8=2,9=2,10=2,19=2,28=1/1;
 99/9=1/99;
 ----------------------
 CrO komplex, zakl stav
 ----------------------
 Symbolic Z-matrix:
 Charge = -1 Multiplicity = 4
 Cr                    0.        0.        0.21503 
 O                    -2.41874  -2.89318  -0.39535 
 C                    -1.44662  -2.18688  -0.28376 
 O                    -1.45515  -1.01159   0.14023 
 C                    -0.03568  -2.53076  -0.87811 
 N                     0.60381  -1.28072  -1.26539 
 C                     0.01339  -0.77795  -2.57509 
 H                     0.62533  -1.28089  -3.25148 
 H                    -0.94415  -1.04495  -2.78716 
 C                    -0.01339   0.77795  -2.57509 
 N                    -0.60381   1.28072  -1.26539 
 C                     0.03568   2.53076  -0.87811 
 C                     1.44662   2.18688  -0.28376 
 O                     2.41874   2.89318  -0.39535 
 O                     1.45515   1.01159   0.14023 
 C                    -0.77909   3.27673   0.16491 
 C                    -1.06774   2.39802   1.34673 
 O                    -1.5016    2.82897   2.39402 
 O                    -0.82406   1.21729   1.247 
 H                    -0.39137   4.21226   0.59569 
 H                    -1.69671   3.57029  -0.33587 
 H                     0.25812   3.20728  -1.76462 
 H                    -1.47667   1.50019  -1.58958 
 H                    -0.62533   1.28089  -3.25148 
 H                     0.94415   1.04495  -2.78716 
 H                     1.47667  -1.50019  -1.58958 
 H                    -0.25812  -3.20728  -1.76462 
 C                     0.77909  -3.27673   0.16491 
 C                     1.06774  -2.39802   1.34673 
 O                     1.5016   -2.82897   2.39402 
 O                     0.82406  -1.21729   1.247 
 H                     0.39137  -4.21226   0.59569 
 H                     1.69671  -3.57029  -0.33587 
 

 GradGradGradGradGradGradGradGradGradGradGradGradGradGradGradGradGradGrad
 Berny optimization.
 Initialization pass.
                           ----------------------------
                           !    Initial Parameters    !
                           ! (Angstroms and Degrees)  !
 --------------------------                            --------------------------
 ! Name  Definition              Value          Derivative Info.                !
 --------------------------------------------------------------------------------
 ! R1    R(1,4)                  1.7738         estimate D2E/DX2                !
 ! R2    R(1,6)                  2.0485         estimate D2E/DX2                !
 ! R3    R(1,11)                 2.0485         estimate D2E/DX2                !
 ! R4    R(1,15)                 1.7738         estimate D2E/DX2                !
 ! R5    R(1,19)                 1.7961         estimate D2E/DX2                !
 ! R6    R(1,31)                 1.7961         estimate D2E/DX2                !
 ! R7    R(2,3)                  1.2068         estimate D2E/DX2                !
 ! R8    R(3,4)                  1.2495         estimate D2E/DX2                !
 ! R9    R(3,5)                  1.5692         estimate D2E/DX2                !
 ! R10   R(5,6)                  1.4566         estimate D2E/DX2                !
 ! R11   R(5,27)                 1.1371         estimate D2E/DX2                !
 ! R12   R(5,28)                 1.5193         estimate D2E/DX2                !
 ! R13   R(6,7)                  1.5221         estimate D2E/DX2                !
 ! R14   R(6,26)                 0.9566         estimate D2E/DX2                !
 ! R15   R(7,8)                  1.0416         estimate D2E/DX2                !
 ! R16   R(7,9)                  1.0164         estimate D2E/DX2                !
 ! R17   R(7,10)                 1.5561         estimate D2E/DX2                !
 ! R18   R(10,11)                1.5221         estimate D2E/DX2                !
 ! R19   R(10,24)                1.0416         estimate D2E/DX2                !
 ! R20   R(10,25)                1.0164         estimate D2E/DX2                !
 ! R21   R(11,12)                1.4566         estimate D2E/DX2                !
 ! R22   R(11,23)                0.9566         estimate D2E/DX2                !
 ! R23   R(12,13)                1.5692         estimate D2E/DX2                !
 ! R24   R(12,16)                1.5193         estimate D2E/DX2                !
 ! R25   R(12,22)                1.1371         estimate D2E/DX2                !
 ! R26   R(13,14)                1.2068         estimate D2E/DX2                !
 ! R27   R(13,15)                1.2495         estimate D2E/DX2                !
 ! R28   R(16,17)                1.5007         estimate D2E/DX2                !
 ! R29   R(16,20)                1.1005         estimate D2E/DX2                !
 ! R30   R(16,21)                1.0858         estimate D2E/DX2                !
 ! R31   R(17,18)                1.2127         estimate D2E/DX2                !
 ! R32   R(17,19)                1.2097         estimate D2E/DX2                !
 ! R33   R(28,29)                1.5007         estimate D2E/DX2                !
 ! R34   R(28,32)                1.1005         estimate D2E/DX2                !
 ! R35   R(28,33)                1.0858         estimate D2E/DX2                !
 ! R36   R(29,30)                1.2127         estimate D2E/DX2                !
 ! R37   R(29,31)                1.2097         estimate D2E/DX2                !
 ! A1    A(4,1,6)               81.6503         estimate D2E/DX2                !
 ! A2    A(4,1,11)              94.8336         estimate D2E/DX2                !
 ! A3    A(4,1,19)              91.969          estimate D2E/DX2                !
 ! A4    A(4,1,31)              90.8081         estimate D2E/DX2                !
 ! A5    A(6,1,11)              87.4482         estimate D2E/DX2                !
 ! A6    A(6,1,15)              94.8336         estimate D2E/DX2                !
 ! A7    A(6,1,31)              81.7363         estimate D2E/DX2                !
 ! A8    A(11,1,15)             81.6503         estimate D2E/DX2                !
 ! A9    A(11,1,19)             81.7363         estimate D2E/DX2                !
 ! A10   A(15,1,19)             90.8081         estimate D2E/DX2                !
 ! A11   A(15,1,31)             91.969          estimate D2E/DX2                !
 ! A12   A(19,1,31)            109.8603         estimate D2E/DX2                !
 ! A13   A(2,3,4)              125.1981         estimate D2E/DX2                !
 ! A14   A(2,3,5)              124.1279         estimate D2E/DX2                !
 ! A15   A(4,3,5)              109.9263         estimate D2E/DX2                !
 ! A16   A(1,4,3)              123.035          estimate D2E/DX2                !
 ! A17   A(3,5,6)              107.903          estimate D2E/DX2                !
 ! A18   A(3,5,27)             104.4645         estimate D2E/DX2                !
 ! A19   A(3,5,28)             109.2555         estimate D2E/DX2                !
 ! A20   A(6,5,27)             112.9035         estimate D2E/DX2                !
 ! A21   A(6,5,28)             111.6214         estimate D2E/DX2                !
 ! A22   A(27,5,28)            110.3658         estimate D2E/DX2                !
 ! A23   A(1,6,5)              102.4149         estimate D2E/DX2                !
 ! A24   A(1,6,7)              107.5178         estimate D2E/DX2                !
 ! A25   A(1,6,26)             131.0923         estimate D2E/DX2                !
 ! A26   A(5,6,7)              109.9968         estimate D2E/DX2                !
 ! A27   A(5,6,26)             107.086          estimate D2E/DX2                !
 ! A28   A(7,6,26)              97.9389         estimate D2E/DX2                !
 ! A29   A(6,7,8)               99.8685         estimate D2E/DX2                !
 ! A30   A(6,7,9)              117.2707         estimate D2E/DX2                !
 ! A31   A(6,7,10)             109.6908         estimate D2E/DX2                !
 ! A32   A(8,7,9)              106.9262         estimate D2E/DX2                !
 ! A33   A(8,7,10)             119.5311         estimate D2E/DX2                !
 ! A34   A(9,7,10)             104.2656         estimate D2E/DX2                !
 ! A35   A(7,10,11)            109.6908         estimate D2E/DX2                !
 ! A36   A(7,10,24)            119.5311         estimate D2E/DX2                !
 ! A37   A(7,10,25)            104.2656         estimate D2E/DX2                !
 ! A38   A(11,10,24)            99.8685         estimate D2E/DX2                !
 ! A39   A(11,10,25)           117.2707         estimate D2E/DX2                !
 ! A40   A(24,10,25)           106.9262         estimate D2E/DX2                !
 ! A41   A(1,11,10)            107.5178         estimate D2E/DX2                !
 ! A42   A(1,11,12)            102.4149         estimate D2E/DX2                !
 ! A43   A(1,11,23)            131.0923         estimate D2E/DX2                !
 ! A44   A(10,11,12)           109.9968         estimate D2E/DX2                !
 ! A45   A(10,11,23)            97.9389         estimate D2E/DX2                !
 ! A46   A(12,11,23)           107.086          estimate D2E/DX2                !
 ! A47   A(11,12,13)           107.903          estimate D2E/DX2                !
 ! A48   A(11,12,16)           111.6214         estimate D2E/DX2                !
 ! A49   A(11,12,22)           112.9035         estimate D2E/DX2                !
 ! A50   A(13,12,16)           109.2555         estimate D2E/DX2                !
 ! A51   A(13,12,22)           104.4645         estimate D2E/DX2                !
 ! A52   A(16,12,22)           110.3658         estimate D2E/DX2                !
 ! A53   A(12,13,14)           124.1279         estimate D2E/DX2                !
 ! A54   A(12,13,15)           109.9263         estimate D2E/DX2                !
 ! A55   A(14,13,15)           125.1981         estimate D2E/DX2                !
 ! A56   A(1,15,13)            123.035          estimate D2E/DX2                !
 ! A57   A(12,16,17)           110.8732         estimate D2E/DX2                !
 ! A58   A(12,16,20)           119.8139         estimate D2E/DX2                !
 ! A59   A(12,16,21)           105.6244         estimate D2E/DX2                !
 ! A60   A(17,16,20)           104.9077         estimate D2E/DX2                !
 ! A61   A(17,16,21)           111.0362         estimate D2E/DX2                !
 ! A62   A(20,16,21)           104.3849         estimate D2E/DX2                !
 ! A63   A(16,17,18)           122.7386         estimate D2E/DX2                !
 ! A64   A(16,17,19)           117.8933         estimate D2E/DX2                !
 ! A65   A(18,17,19)           119.3457         estimate D2E/DX2                !
 ! A66   A(1,19,17)            143.2538         estimate D2E/DX2                !
 ! A67   A(5,28,29)            110.8732         estimate D2E/DX2                !
 ! A68   A(5,28,32)            119.8139         estimate D2E/DX2                !
 ! A69   A(5,28,33)            105.6244         estimate D2E/DX2                !
 ! A70   A(29,28,32)           104.9077         estimate D2E/DX2                !
 ! A71   A(29,28,33)           111.0362         estimate D2E/DX2                !
 ! A72   A(32,28,33)           104.3849         estimate D2E/DX2                !
 ! A73   A(28,29,30)           122.7386         estimate D2E/DX2                !
 ! A74   A(28,29,31)           117.8933         estimate D2E/DX2                !
 ! A75   A(30,29,31)           119.3457         estimate D2E/DX2                !
 ! A76   A(1,31,29)            143.2538         estimate D2E/DX2                !
 ! A77   L(4,1,15,6,-1)        176.4838         estimate D2E/DX2                !
 ! A78   L(6,1,19,4,-1)        173.6193         estimate D2E/DX2                !
 ! A79   L(11,1,31,4,-1)       185.6417         estimate D2E/DX2                !
 ! A80   L(4,1,15,6,-2)        176.6602         estimate D2E/DX2                !
 ! A81   L(6,1,19,4,-2)        191.4305         estimate D2E/DX2                !
 ! A82   L(11,1,31,4,-2)       168.2259         estimate D2E/DX2                !
 ! D1    D(6,1,4,3)             24.2677         estimate D2E/DX2                !
 ! D2    D(11,1,4,3)           110.9673         estimate D2E/DX2                !
 ! D3    D(19,1,4,3)          -167.1628         estimate D2E/DX2                !
 ! D4    D(31,1,4,3)           -57.2587         estimate D2E/DX2                !
 ! D5    D(4,1,6,5)            -33.3467         estimate D2E/DX2                !
 ! D6    D(4,1,6,7)             82.5449         estimate D2E/DX2                !
 ! D7    D(4,1,6,26)          -159.5862         estimate D2E/DX2                !
 ! D8    D(11,1,6,5)          -128.6133         estimate D2E/DX2                !
 ! D9    D(11,1,6,7)           -12.7218         estimate D2E/DX2                !
 ! D10   D(11,1,6,26)          105.1472         estimate D2E/DX2                !
 ! D11   D(15,1,6,5)           149.9932         estimate D2E/DX2                !
 ! D12   D(15,1,6,7)           -94.1153         estimate D2E/DX2                !
 ! D13   D(15,1,6,26)           23.7536         estimate D2E/DX2                !
 ! D14   D(31,1,6,5)            58.7004         estimate D2E/DX2                !
 ! D15   D(31,1,6,7)           174.5919         estimate D2E/DX2                !
 ! D16   D(31,1,6,26)          -67.5392         estimate D2E/DX2                !
 ! D17   D(4,1,11,10)          -94.1153         estimate D2E/DX2                !
 ! D18   D(4,1,11,12)          149.9932         estimate D2E/DX2                !
 ! D19   D(4,1,11,23)           23.7536         estimate D2E/DX2                !
 ! D20   D(6,1,11,10)          -12.7218         estimate D2E/DX2                !
 ! D21   D(6,1,11,12)         -128.6133         estimate D2E/DX2                !
 ! D22   D(6,1,11,23)          105.1472         estimate D2E/DX2                !
 ! D23   D(15,1,11,10)          82.5449         estimate D2E/DX2                !
 ! D24   D(15,1,11,12)         -33.3467         estimate D2E/DX2                !
 ! D25   D(15,1,11,23)        -159.5862         estimate D2E/DX2                !
 ! D26   D(19,1,11,10)         174.5919         estimate D2E/DX2                !
 ! D27   D(19,1,11,12)          58.7004         estimate D2E/DX2                !
 ! D28   D(19,1,11,23)         -67.5392         estimate D2E/DX2                !
 ! D29   D(6,1,15,13)          110.9673         estimate D2E/DX2                !
 ! D30   D(11,1,15,13)          24.2677         estimate D2E/DX2                !
 ! D31   D(19,1,15,13)         -57.2587         estimate D2E/DX2                !
 ! D32   D(31,1,15,13)        -167.1628         estimate D2E/DX2                !
 ! D33   D(4,1,19,17)         -127.9033         estimate D2E/DX2                !
 ! D34   D(11,1,19,17)         -33.3031         estimate D2E/DX2                !
 ! D35   D(15,1,19,17)          48.1394         estimate D2E/DX2                !
 ! D36   D(31,1,19,17)         140.5253         estimate D2E/DX2                !
 ! D37   D(4,1,31,29)           48.1394         estimate D2E/DX2                !
 ! D38   D(6,1,31,29)          -33.3031         estimate D2E/DX2                !
 ! D39   D(15,1,31,29)        -127.9033         estimate D2E/DX2                !
 ! D40   D(19,1,31,29)         140.5253         estimate D2E/DX2                !
 ! D41   D(2,3,4,1)           -177.2765         estimate D2E/DX2                !
 ! D42   D(5,3,4,1)             -6.8748         estimate D2E/DX2                !
 ! D43   D(2,3,5,6)            146.7717         estimate D2E/DX2                !
 ! D44   D(2,3,5,27)            26.3936         estimate D2E/DX2                !
 ! D45   D(2,3,5,28)           -91.6935         estimate D2E/DX2                !
 ! D46   D(4,3,5,6)            -23.7542         estimate D2E/DX2                !
 ! D47   D(4,3,5,27)          -144.1324         estimate D2E/DX2                !
 ! D48   D(4,3,5,28)            97.7806         estimate D2E/DX2                !
 ! D49   D(3,5,6,1)             37.0344         estimate D2E/DX2                !
 ! D50   D(3,5,6,7)            -77.0506         estimate D2E/DX2                !
 ! D51   D(3,5,6,26)           177.5457         estimate D2E/DX2                !
 ! D52   D(27,5,6,1)           151.9599         estimate D2E/DX2                !
 ! D53   D(27,5,6,7)            37.8749         estimate D2E/DX2                !
 ! D54   D(27,5,6,26)          -67.5288         estimate D2E/DX2                !
 ! D55   D(28,5,6,1)           -83.021          estimate D2E/DX2                !
 ! D56   D(28,5,6,7)           162.894          estimate D2E/DX2                !
 ! D57   D(28,5,6,26)           57.4903         estimate D2E/DX2                !
 ! D58   D(3,5,28,29)          -65.1176         estimate D2E/DX2                !
 ! D59   D(3,5,28,32)           57.2836         estimate D2E/DX2                !
 ! D60   D(3,5,28,33)          174.5143         estimate D2E/DX2                !
 ! D61   D(6,5,28,29)           54.1393         estimate D2E/DX2                !
 ! D62   D(6,5,28,32)          176.5405         estimate D2E/DX2                !
 ! D63   D(6,5,28,33)          -66.2289         estimate D2E/DX2                !
 ! D64   D(27,5,28,29)        -179.4417         estimate D2E/DX2                !
 ! D65   D(27,5,28,32)         -57.0405         estimate D2E/DX2                !
 ! D66   D(27,5,28,33)          60.1901         estimate D2E/DX2                !
 ! D67   D(1,6,7,8)            161.8457         estimate D2E/DX2                !
 ! D68   D(1,6,7,9)            -83.1845         estimate D2E/DX2                !
 ! D69   D(1,6,7,10)            35.4309         estimate D2E/DX2                !
 ! D70   D(5,6,7,8)            -87.3749         estimate D2E/DX2                !
 ! D71   D(5,6,7,9)             27.5949         estimate D2E/DX2                !
 ! D72   D(5,6,7,10)           146.2103         estimate D2E/DX2                !
 ! D73   D(26,6,7,8)            24.1207         estimate D2E/DX2                !
 ! D74   D(26,6,7,9)           139.0905         estimate D2E/DX2                !
 ! D75   D(26,6,7,10)         -102.2941         estimate D2E/DX2                !
 ! D76   D(6,7,10,11)          -47.8945         estimate D2E/DX2                !
 ! D77   D(6,7,10,24)         -162.2214         estimate D2E/DX2                !
 ! D78   D(6,7,10,25)           78.4847         estimate D2E/DX2                !
 ! D79   D(8,7,10,11)         -162.2214         estimate D2E/DX2                !
 ! D80   D(8,7,10,24)           83.4518         estimate D2E/DX2                !
 ! D81   D(8,7,10,25)          -35.8421         estimate D2E/DX2                !
 ! D82   D(9,7,10,11)           78.4847         estimate D2E/DX2                !
 ! D83   D(9,7,10,24)          -35.8421         estimate D2E/DX2                !
 ! D84   D(9,7,10,25)         -155.136          estimate D2E/DX2                !
 ! D85   D(7,10,11,1)           35.4309         estimate D2E/DX2                !
 ! D86   D(7,10,11,12)         146.2103         estimate D2E/DX2                !
 ! D87   D(7,10,11,23)        -102.2941         estimate D2E/DX2                !
 ! D88   D(24,10,11,1)         161.8457         estimate D2E/DX2                !
 ! D89   D(24,10,11,12)        -87.3749         estimate D2E/DX2                !
 ! D90   D(24,10,11,23)         24.1207         estimate D2E/DX2                !
 ! D91   D(25,10,11,1)         -83.1845         estimate D2E/DX2                !
 ! D92   D(25,10,11,12)         27.5949         estimate D2E/DX2                !
 ! D93   D(25,10,11,23)        139.0905         estimate D2E/DX2                !
 ! D94   D(1,11,12,13)          37.0344         estimate D2E/DX2                !
 ! D95   D(1,11,12,16)         -83.021          estimate D2E/DX2                !
 ! D96   D(1,11,12,22)         151.9599         estimate D2E/DX2                !
 ! D97   D(10,11,12,13)        -77.0506         estimate D2E/DX2                !
 ! D98   D(10,11,12,16)        162.894          estimate D2E/DX2                !
 ! D99   D(10,11,12,22)         37.8749         estimate D2E/DX2                !
 ! D100  D(23,11,12,13)        177.5457         estimate D2E/DX2                !
 ! D101  D(23,11,12,16)         57.4903         estimate D2E/DX2                !
 ! D102  D(23,11,12,22)        -67.5288         estimate D2E/DX2                !
 ! D103  D(11,12,13,14)        146.7717         estimate D2E/DX2                !
 ! D104  D(11,12,13,15)        -23.7542         estimate D2E/DX2                !
 ! D105  D(16,12,13,14)        -91.6935         estimate D2E/DX2                !
 ! D106  D(16,12,13,15)         97.7806         estimate D2E/DX2                !
 ! D107  D(22,12,13,14)         26.3936         estimate D2E/DX2                !
 ! D108  D(22,12,13,15)       -144.1324         estimate D2E/DX2                !
 ! D109  D(11,12,16,17)         54.1393         estimate D2E/DX2                !
 ! D110  D(11,12,16,20)        176.5405         estimate D2E/DX2                !
 ! D111  D(11,12,16,21)        -66.2289         estimate D2E/DX2                !
 ! D112  D(13,12,16,17)        -65.1176         estimate D2E/DX2                !
 ! D113  D(13,12,16,20)         57.2836         estimate D2E/DX2                !
 ! D114  D(13,12,16,21)        174.5143         estimate D2E/DX2                !
 ! D115  D(22,12,16,17)       -179.4417         estimate D2E/DX2                !
 ! D116  D(22,12,16,20)        -57.0405         estimate D2E/DX2                !
 ! D117  D(22,12,16,21)         60.1901         estimate D2E/DX2                !
 ! D118  D(12,13,15,1)          -6.8748         estimate D2E/DX2                !
 ! D119  D(14,13,15,1)        -177.2765         estimate D2E/DX2                !
 ! D120  D(12,16,17,18)        167.2289         estimate D2E/DX2                !
 ! D121  D(12,16,17,19)        -11.0394         estimate D2E/DX2                !
 ! D122  D(20,16,17,18)         36.5243         estimate D2E/DX2                !
 ! D123  D(20,16,17,19)       -141.7439         estimate D2E/DX2                !
 ! D124  D(21,16,17,18)        -75.6751         estimate D2E/DX2                !
 ! D125  D(21,16,17,19)        106.0567         estimate D2E/DX2                !
 ! D126  D(16,17,19,1)          11.1665         estimate D2E/DX2                !
 ! D127  D(18,17,19,1)        -167.1624         estimate D2E/DX2                !
 ! D128  D(5,28,29,30)         167.2289         estimate D2E/DX2                !
 ! D129  D(5,28,29,31)         -11.0394         estimate D2E/DX2                !
 ! D130  D(32,28,29,30)         36.5243         estimate D2E/DX2                !
 ! D131  D(32,28,29,31)       -141.7439         estimate D2E/DX2                !
 ! D132  D(33,28,29,30)        -75.6751         estimate D2E/DX2                !
 ! D133  D(33,28,29,31)        106.0567         estimate D2E/DX2                !
 ! D134  D(28,29,31,1)          11.1665         estimate D2E/DX2                !
 ! D135  D(30,29,31,1)        -167.1624         estimate D2E/DX2                !
 --------------------------------------------------------------------------------
 Trust Radius=3.00D-01 FncErr=1.00D-07 GrdErr=1.00D-06 EigMax=2.50D+02 EigMin=1.00D-04
 Number of steps in this run=    198 maximum allowed number of steps=    198.
 GradGradGradGradGradGradGradGradGradGradGradGradGradGradGradGradGradGrad

                          Input orientation:                          
 ---------------------------------------------------------------------
 Center     Atomic      Atomic             Coordinates (Angstroms)
 Number     Number       Type             X           Y           Z
 ---------------------------------------------------------------------
      1         24           0        0.000000    0.000000    0.215034
      2          8           0       -2.418745   -2.893177   -0.395345
      3          6           0       -1.446623   -2.186882   -0.283763
      4          8           0       -1.455154   -1.011592    0.140229
      5          6           0       -0.035680   -2.530762   -0.878109
      6          7           0        0.603811   -1.280716   -1.265391
      7          6           0        0.013395   -0.777955   -2.575092
      8          1           0        0.625328   -1.280887   -3.251476
      9          1           0       -0.944145   -1.044946   -2.787163
     10          6           0       -0.013395    0.777955   -2.575092
     11          7           0       -0.603811    1.280716   -1.265391
     12          6           0        0.035680    2.530762   -0.878109
     13          6           0        1.446623    2.186882   -0.283763
     14          8           0        2.418745    2.893177   -0.395345
     15          8           0        1.455154    1.011592    0.140229
     16          6           0       -0.779090    3.276726    0.164915
     17          6           0       -1.067743    2.398022    1.346728
     18          8           0       -1.501601    2.828967    2.394016
     19          8           0       -0.824060    1.217289    1.247004
     20          1           0       -0.391375    4.212257    0.595686
     21          1           0       -1.696709    3.570287   -0.335873
     22          1           0        0.258117    3.207278   -1.764620
     23          1           0       -1.476675    1.500189   -1.589578
     24          1           0       -0.625328    1.280887   -3.251476
     25          1           0        0.944145    1.044946   -2.787163
     26          1           0        1.476675   -1.500189   -1.589578
     27          1           0       -0.258117   -3.207278   -1.764620
     28          6           0        0.779090   -3.276726    0.164915
     29          6           0        1.067743   -2.398022    1.346728
     30          8           0        1.501601   -2.828967    2.394016
     31          8           0        0.824060   -1.217289    1.247004
     32          1           0        0.391375   -4.212257    0.595686
     33          1           0        1.696709   -3.570287   -0.335873
 ---------------------------------------------------------------------
                    Distance matrix (angstroms):
                    1          2          3          4          5
     1  Cr   0.000000
     2  O    3.820126   0.000000
     3  C    2.669076   1.206783   0.000000
     4  O    1.773806   2.180759   1.249459   0.000000
     5  C    2.756990   2.458334   1.569160   2.315124   0.000000
     6  N    2.048531   3.534523   2.447245   2.507495   1.456554
     7  C    2.896584   3.891114   3.060542   3.095835   2.440183
     8  H    3.748119   4.474745   3.731103   3.988056   2.762605
     9  H    3.316099   3.363212   2.797055   2.971847   2.584076
    10  C    2.896584   4.900430   4.011806   3.557263   3.718582
    11  N    2.048531   4.633827   3.701103   2.820502   3.873000
    12  C    2.756990   5.972971   4.980626   3.975912   5.062028
    13  C    2.669076   6.384396   5.244109   4.339391   4.980626
    14  O    3.820126   7.542095   6.384396   5.526405   5.972971
    15  O    1.773806   5.526405   4.339391   3.544456   3.975912
    16  C    3.368445   6.408593   5.522492   4.341353   5.947056
    17  C    2.858551   5.732086   4.880921   3.637471   5.505268
    18  O    3.873736   6.431534   5.686147   4.453270   6.448444
    19  O    1.796060   4.704919   3.784074   2.567322   4.380130
    20  H    4.247491   7.455171   6.544919   5.350483   6.911361
    21  H    3.991149   6.503940   5.762834   4.612878   6.346325
    22  H    3.777868   6.801181   5.847738   4.935850   5.813547
    23  H    2.772681   4.649231   3.911592   3.049876   4.339496
    24  H    3.748119   5.366250   4.637593   4.177049   4.528711
    25  H    3.316099   5.704265   4.735768   4.307623   4.170160
    26  H    2.772681   4.305915   3.274503   3.438980   1.963539
    27  H    3.777868   2.577186   2.155619   3.143626   1.137125
    28  C    3.368445   3.269120   2.518505   3.181711   1.519279
    29  C    2.858551   3.928816   3.004183   3.121351   2.486979
    30  O    3.873736   4.811837   4.034204   4.138213   3.627529
    31  O    1.796060   4.002711   2.905057   2.542062   2.642058
    32  H    4.247491   3.258663   2.872944   3.723085   2.276373
    33  H    3.991149   4.171208   3.434685   4.087522   2.091842
                    6          7          8          9         10
     6  N    0.000000
     7  C    1.522064   0.000000
     8  H    1.986202   1.041584   0.000000
     9  H    2.183471   1.016436   1.653632   0.000000
    10  C    2.516820   1.556140   2.259268   2.057726   0.000000
    11  N    2.831834   2.516820   3.466573   2.800058   1.522064
    12  C    3.873000   3.718582   4.528711   4.170160   2.440183
    13  C    3.701103   4.011806   4.637593   4.735768   3.060542
    14  O    4.633827   4.900430   5.366250   5.704265   3.891114
    15  O    2.820502   3.557263   4.177049   4.307623   3.095835
    16  C    4.972772   4.957429   5.866511   5.236302   3.786526
    17  C    4.811483   5.161043   6.127344   5.381298   4.372293
    18  O    5.891818   6.324329   7.299747   6.493272   5.577943
    19  O    3.819813   4.392124   5.345833   4.626731   3.931744
    20  H    5.884450   5.926203   6.782991   6.275939   4.689471
    21  H    5.448727   5.181290   6.117719   5.279730   3.955347
    22  H    4.528888   4.074167   4.742279   4.535685   2.575305
    23  H    3.488115   2.895079   3.861956   2.862780   1.906318
    24  H    3.466573   2.259268   2.850759   2.393058   1.041584
    25  H    2.800058   2.057726   2.393058   2.816609   1.016436
    26  H    0.956639   1.906318   1.880103   2.738946   2.895079
    27  H    2.168822   2.575305   2.588860   2.488355   4.074167
    28  C    2.461819   3.786526   3.959639   4.082296   4.957429
    29  C    2.878675   4.372293   4.752600   4.792449   5.161043
    30  O    4.073619   5.577943   5.919121   6.000753   6.324329
    31  O    2.522828   3.931744   4.503317   4.408034   4.392124
    32  H    3.478889   4.689471   4.842347   4.822774   5.926203
    33  H    2.701956   3.955347   3.858750   4.400032   5.181290
                   11         12         13         14         15
    11  N    0.000000
    12  C    1.456554   0.000000
    13  C    2.447245   1.569160   0.000000
    14  O    3.534523   2.458334   1.206783   0.000000
    15  O    2.507495   2.315124   1.249459   2.180759   0.000000
    16  C    2.461819   1.519279   2.518505   3.269120   3.181711
    17  C    2.878675   2.486979   3.004183   3.928816   3.121351
    18  O    4.073619   3.627529   4.034204   4.811837   4.138213
    19  O    2.522828   2.642058   2.905057   4.002711   2.542062
    20  H    3.478889   2.276373   2.872944   3.258663   3.723085
    21  H    2.701956   2.091842   3.434685   4.171208   4.087522
    22  H    2.168822   1.137125   2.155619   2.577186   3.143626
    23  H    0.956639   1.963539   3.274503   4.305915   3.438980
    24  H    1.986202   2.762605   3.731103   4.474745   3.988056
    25  H    2.183471   2.584076   2.797055   3.363212   2.971847
    26  H    3.488115   4.339496   3.911592   4.649231   3.049876
    27  H    4.528888   5.813547   5.847738   6.801181   4.935850
    28  C    4.972772   5.947056   5.522492   6.408593   4.341353
    29  C    4.811483   5.505268   4.880921   5.732086   3.637471
    30  O    5.891818   6.448444   5.686147   6.431534   4.453270
    31  O    3.819813   4.380130   3.784074   4.704919   2.567322
    32  H    5.884450   6.911361   6.544919   7.455171   5.350483
    33  H    5.448727   6.346325   5.762834   6.503940   4.612878
                   16         17         18         19         20
    16  C    0.000000
    17  C    1.500708   0.000000
    18  O    2.385667   1.212749   0.000000
    19  O    2.326848   1.209734   2.090982   0.000000
    20  H    1.100503   2.076774   2.525883   3.095362   0.000000
    21  H    1.085814   2.144983   2.835475   2.967089   1.727376
    22  H    2.191740   3.477540   4.531444   3.768427   2.646293
    23  H    2.592480   3.097616   4.199440   2.924404   3.648092
    24  H    3.959639   4.752600   5.919121   4.503317   4.842347
    25  H    4.082296   4.792449   6.000753   4.408034   4.822774
    26  H    5.566474   5.503817   6.593993   4.552391   6.395079
    27  H    6.785044   6.461840   7.434835   5.382097   7.787060
    28  C    6.736145   6.083604   6.888391   4.892563   7.592129
    29  C    6.083604   5.249984   5.917749   4.081585   6.810938
    30  O    6.888391   5.917749   6.405580   4.805885   7.509740
    31  O    4.892563   4.081585   4.805885   2.939978   5.601917
    32  H    7.592129   6.810938   7.509740   5.601917   8.460800
    33  H    7.298079   6.789260   7.657150   5.637434   8.111467
                   21         22         23         24         25
    21  H    0.000000
    22  H    2.448354   0.000000
    23  H    2.430123   2.440142   0.000000
    24  H    3.858750   2.588860   1.880103   0.000000
    25  H    4.400032   2.488355   2.738946   1.653632   0.000000
    26  H    6.111617   4.865775   4.210052   3.861956   2.862780
    27  H    7.074338   6.435296   4.865775   4.742279   4.535685
    28  C    7.298079   6.785044   5.566474   5.866511   5.236302
    29  C    6.789260   6.461840   5.503817   6.127344   5.381298
    30  O    7.657150   7.434835   6.593993   7.299747   6.493272
    31  O    5.637434   5.382097   4.552391   5.345833   4.626731
    32  H    8.111467   7.787060   6.395079   6.782991   6.275939
    33  H    7.905889   7.074338   6.111617   6.117719   5.279730
                   26         27         28         29         30
    26  H    0.000000
    27  H    2.440142   0.000000
    28  C    2.592480   2.191740   0.000000
    29  C    3.097616   3.477540   1.500708   0.000000
    30  O    4.199440   4.531444   2.385667   1.212749   0.000000
    31  O    2.924404   3.768427   2.326848   1.209734   2.090982
    32  H    3.648092   2.646293   1.100503   2.076774   2.525883
    33  H    2.430123   2.448354   1.085814   2.144983   2.835475
                   31         32         33
    31  O    0.000000
    32  H    3.095362   0.000000
    33  H    2.967089   1.727376   0.000000
 Stoichiometry    C10H12CrN2O8(1-,4)
 Framework group  C2[C2(Cr),X(C10H12N2O8)]
 Deg. of freedom    47
 Full point group                 C2      NOp   2
 Largest Abelian subgroup         C2      NOp   2
 Largest concise Abelian subgroup C2      NOp   2
                         Standard orientation:                         
 ---------------------------------------------------------------------
 Center     Atomic      Atomic             Coordinates (Angstroms)
 Number     Number       Type             X           Y           Z
 ---------------------------------------------------------------------
      1         24           0        0.000000   -0.000000    0.234287
      2          8           0       -0.994925    3.637434   -0.376092
      3          6           0       -0.969885    2.436081   -0.264509
      4          8           0       -0.000000    1.772228    0.159483
      5          6           0       -2.057611    1.473862   -0.858856
      6          7           0       -1.396236    0.235255   -1.246137
      7          6           0       -0.646414    0.433060   -2.555839
      8          1           0       -1.408659    0.217685   -3.232222
      9          1           0       -0.319071    1.371683   -2.767910
     10          6           0        0.646414   -0.433060   -2.555839
     11          7           0        1.396236   -0.235255   -1.246137
     12          6           0        2.057611   -1.473862   -0.858856
     13          6           0        0.969885   -2.436081   -0.264509
     14          8           0        0.994925   -3.637434   -0.376092
     15          8           0       -0.000000   -1.772228    0.159483
     16          6           0        3.135184   -1.230663    0.184168
     17          6           0        2.578456   -0.492087    1.365982
     18          8           0        3.179947   -0.381836    2.413270
     19          8           0        1.469876   -0.018207    1.266258
     20          1           0        3.682029   -2.083015    0.614939
     21          1           0        3.900003   -0.644783   -0.316620
     22          1           0        2.486122   -2.042659   -1.745367
     23          1           0        2.074676    0.356167   -1.570325
     24          1           0        1.408659   -0.217685   -3.232222
     25          1           0        0.319071   -1.371683   -2.767910
     26          1           0       -2.074676   -0.356167   -1.570325
     27          1           0       -2.486122    2.042659   -1.745367
     28          6           0       -3.135184    1.230663    0.184168
     29          6           0       -2.578456    0.492087    1.365982
     30          8           0       -3.179947    0.381836    2.413270
     31          8           0       -1.469876    0.018207    1.266258
     32          1           0       -3.682029    2.083015    0.614939
     33          1           0       -3.900003    0.644783   -0.316620
 ---------------------------------------------------------------------
 Rotational constants (GHZ):           0.4942190           0.2680796           0.2552755
 General basis read from cards:  (5D, 7F)
 There are   527 symmetry adapted cartesian basis functions of A   symmetry.
 There are   520 symmetry adapted cartesian basis functions of B   symmetry.
 There are   462 symmetry adapted basis functions of A   symmetry.
 There are   458 symmetry adapted basis functions of B   symmetry.
   920 basis functions,  1421 primitive gaussians,  1047 cartesian basis functions
    89 alpha electrons       86 beta electrons
       nuclear repulsion energy      2472.2341561898 Hartrees.
 NAtoms=   33 NActive=   33 NUniq=   17 SFac= 3.77D+00 NAtFMM=   60 NAOKFM=F Big=F
 Integral buffers will be    131072 words long.
 Raffenetti 2 integral format.
 Two-electron integral symmetry is turned on.
 ------------------------------------------------------------------------------
 Polarizable Continuum Model (PCM)
 =================================
 Model                : C-PCM.
 Atomic radii         : UFF (Universal Force Field).
 Polarization charges : Total charges.
 Charge compensation  : None.
 Solution method      : On-the-fly selection.
 Cavity type          : Scaled VdW (van der Waals Surface) (Alpha=1.100).
 Cavity algorithm     : GePol (No added spheres)
                        Default sphere list used, NSphG=   33.
                        Lebedev-Laikov grids with approx.  5.0 points / Ang**2.
                        Smoothing algorithm: York/Karplus (Gamma=1.0000).
                        Polarization charges: spherical gaussians, with
                                              point-specific exponents (IZeta= 3).
                        Self-potential: point-specific (ISelfS= 7).
                        Self-field    : sphere-specific E.n sum rule (ISelfD= 2).
 1st derivatives      : Analytical E(r).r(x)/FMM algorithm (CHGder, D1EAlg=3).
                        Cavity 1st derivative terms included.
 Solvent              : Water, Eps=  78.355300 Eps(inf)=   1.777849
 ------------------------------------------------------------------------------
 One-electron integrals computed using PRISM.
 NBasis=   920 RedAO= T EigKep=  1.44D-06  NBF=   462   458
 NBsUse=   920 1.00D-06 EigRej= -1.00D+00 NBFU=   462   458
 ExpMin= 2.59D-02 ExpMax= 2.54D+05 ExpMxC= 2.46D+03 IAcc=3 IRadAn=         5 AccDes= 0.00D+00
 Harris functional with IExCor=  402 and IRadAn=       5 diagonalized for initial guess.
 HarFok:  IExCor=  402 AccDes= 0.00D+00 IRadAn=         5 IDoV= 1 UseB2=F ITyADJ=14
 ICtDFT=  3500011 ScaDFX=  1.000000  1.000000  1.000000  1.000000
 FoFCou: FMM=F IPFlag=           0 FMFlag=      100000 FMFlg1=           0
         NFxFlg=           0 DoJE=T BraDBF=F KetDBF=T FulRan=T
         wScrn=  0.000000 ICntrl=       500 IOpCl=  0 I1Cent=   200000004 NGrid=           0
         NMat0=    1 NMatS0=      1 NMatT0=    0 NMatD0=    1 NMtDS0=    0 NMtDT0=    0
 Petite list used in FoFCou.
 Initial guess orbital symmetries:
 Alpha Orbitals:
       Occupied  (A) (A) (B) (B) (A) (B) (A) (B) (A) (B) (A) (B)
                 (A) (A) (B) (A) (B) (B) (A) (A) (B) (A) (B) (B)
                 (A) (A) (B) (B) (A) (A) (B) (A) (B) (A) (B) (A)
                 (B) (A) (B) (A) (B) (A) (B) (A) (B) (A) (B) (A)
                 (B) (A) (B) (A) (B) (A) (B) (A) (A) (B) (B) (B)
                 (A) (A) (B) (A) (B) (A) (B) (A) (B) (A) (B) (A)
                 (A) (B) (A) (B) (A) (B) (A) (B) (B) (A) (A) (B)
                 (A) (B) (B) (A) (A)
       Virtual   (B) (A) (A) (A) (B) (B) (A) (B) (A) (B) (A) (A)
                 (B) (A) (B) (B) (A) (B) (B) (A) (B) (B) (A) (B)
                 (A) (B) (A) (B) (A) (A) (A) (B) (A) (B) (B) (A)
                 (A) (B) (A) (B) (A) (B) (B) (A) (B) (B) (A) (B)
                 (B) (A) (A) (B) (A) (A) (B) (A) (A) (B) (B) (A)
                 (B) (A) (B) (A) (B) (A) (A) (B) (B) (A) (B) (A)
                 (B) (A) (A) (B) (A) (B) (A) (B) (B) (A) (A) (B)
                 (B) (A) (A) (B) (A) (B) (B) (A) (B) (A) (A) (B)
                 (B) (A) (B) (A) (B) (A) (B) (A) (B) (A) (B) (A)
                 (B) (A) (B) (A) (A) (B) (A) (B) (B) (A) (B) (B)
                 (A) (B) (A) (A) (B) (A) (B) (A) (B) (A) (B) (A)
                 (B) (A) (A) (B) (A) (B) (A) (B) (A) (A) (B) (A)
                 (B) (A) (A) (B) (B) (A) (B) (A) (B) (B) (A) (B)
                 (A) (A) (B) (A) (B) (A) (B) (A) (B) (A) (B) (A)
                 (B) (B) (B) (A) (A) (A) (B) (A) (B) (A) (B) (B)
                 (B) (A) (A) (B) (A) (B) (B) (A) (A) (B) (A) (B)
                 (A) (B) (A) (A) (B) (A) (B) (A) (B) (B) (A) (B)
                 (A) (A) (B) (A) (B) (A) (B) (A) (B) (B) (A) (B)
                 (A) (A) (B) (B) (A) (B) (A) (B) (A) (A) (B) (A)
                 (B) (B) (A) (B) (A) (B) (A) (B) (A) (B) (A) (B)
                 (A) (B) (A) (A) (B) (A) (B) (A) (B) (B) (A) (A)
                 (B) (A) (B) (A) (B) (B) (A) (B) (A) (B) (B) (A)
                 (B) (A) (B) (A) (B) (A) (A) (B) (A) (B) (A) (A)
                 (B) (B) (A) (B) (A) (B) (A) (A) (B) (B) (A) (B)
                 (B) (A) (B) (A) (A) (B) (A) (B) (A) (B) (A) (B)
                 (A) (A) (B) (A) (B) (A) (A) (B) (B) (A) (B) (B)
                 (A) (B) (A) (B) (A) (B) (B) (A) (B) (A) (A) (B)
                 (B) (A) (A) (A) (B) (B) (A) (A) (B) (B) (A) (B)
                 (A) (A) (A) (B) (A) (B) (A) (B) (B) (A) (B) (B)
                 (A) (A) (B) (B) (B) (A) (A) (B) (A) (A) (B) (B)
                 (A) (A) (B) (B) (A) (A) (B) (A) (B) (B) (A) (B)
                 (A) (A) (B) (A) (B) (A) (B) (A) (B) (A) (B) (B)
                 (A) (B) (A) (A) (A) (B) (A) (B) (A) (B) (B) (B)
                 (B) (A) (B) (A) (A) (B) (A) (B) (A) (A) (B) (A)
                 (B) (A) (B) (B) (A) (B) (B) (A) (B) (A) (B) (A)
                 (A) (B) (B) (A) (B) (A) (A) (B) (B) (A) (A) (A)
                 (B) (A) (B) (A) (B) (B) (A) (B) (A) (B) (A) (B)
                 (B) (A) (A) (A) (B) (B) (A) (B) (A) (B) (A) (A)
                 (A) (B) (B) (B) (A) (B) (A) (B) (A) (A) (B) (B)
                 (A) (B) (A) (B) (A) (B) (A) (A) (B) (A) (B) (A)
                 (B) (B) (A) (B) (A) (B) (A) (B) (A) (A) (B) (A)
                 (B) (B) (A) (B) (B) (A) (B) (A) (B) (A) (B) (A)
                 (A) (B) (A) (B) (A) (B) (A) (B) (A) (A) (B) (B)
                 (A) (A) (A) (B) (B) (A) (B) (A) (A) (B) (A) (A)
                 (B) (B) (A) (B) (B) (B) (A) (A) (B) (A) (B) (B)
                 (A) (A) (B) (B) (A) (A) (B) (B) (A) (B) (A) (A)
                 (B) (A) (A) (B) (B) (A) (B) (A) (A) (A) (B) (B)
                 (B) (A) (A) (B) (B) (A) (B) (A) (A) (B) (A) (A)
                 (B) (B) (B) (A) (B) (B) (A) (A) (B) (A) (B) (A)
                 (B) (A) (B) (A) (B) (A) (B) (A) (A) (B) (B) (A)
                 (B) (A) (B) (A) (A) (B) (B) (A) (B) (A) (A) (B)
                 (A) (B) (B) (A) (B) (A) (A) (B) (A) (B) (B) (A)
                 (B) (B) (A) (B) (A) (A) (A) (B) (B) (B) (A) (B)
                 (B) (A) (A) (A) (B) (A) (B) (A) (B) (A) (B) (A)
                 (B) (A) (B) (A) (A) (B) (B) (A) (B) (B) (A) (B)
                 (A) (A) (B) (A) (B) (A) (B) (A) (A) (B) (B) (B)
                 (A) (B) (A) (A) (A) (B) (B) (A) (B) (A) (B) (B)
                 (A) (B) (A) (A) (B) (A) (B) (A) (B) (A) (B) (A)
                 (B) (A) (B) (B) (A) (B) (A) (A) (B) (B) (A) (A)
                 (B) (A) (B) (A) (B) (B) (A) (B) (A) (B) (A) (B)
                 (A) (B) (A) (B) (A) (B) (A) (A) (B) (B) (B) (A)
                 (A) (B) (A) (A) (B) (B) (A) (B) (A) (A) (B) (B)
                 (A) (B) (A) (A) (A) (B) (B) (A) (B) (A) (B) (A)
                 (B) (B) (A) (B) (A) (B) (A) (B) (A) (B) (A) (B)
                 (B) (A) (A) (B) (A) (B) (B) (A) (A) (B) (A) (B)
                 (A) (B) (A) (B) (A) (B) (B) (A) (A) (A) (B) (A)
                 (B) (A) (B) (A) (B) (A) (B) (A) (B) (B) (A) (A)
                 (B) (B) (A) (B) (A) (A) (B) (A) (B) (A) (B) (A)
                 (B) (A) (B) (B) (A) (B) (A) (A) (B) (A) (B) (A)
                 (B) (A) (B)
 Beta  Orbitals:
       Occupied  (A) (A) (B) (B) (A) (B) (A) (B) (A) (B) (A) (B)
                 (A) (A) (B) (A) (B) (B) (A) (A) (B) (A) (B) (B)
                 (A) (A) (B) (B) (A) (A) (B) (A) (B) (A) (B) (A)
                 (B) (A) (B) (A) (B) (A) (B) (A) (B) (A) (B) (A)
                 (B) (A) (B) (A) (B) (A) (B) (A) (A) (B) (B) (B)
                 (A) (A) (B) (A) (B) (A) (B) (A) (B) (A) (B) (A)
                 (A) (B) (A) (B) (A) (B) (A) (B) (B) (A) (A) (B)
                 (A) (B)
       Virtual   (B) (A) (A) (B) (A) (A) (A) (B) (B) (A) (B) (A)
                 (B) (A) (A) (B) (A) (B) (B) (A) (B) (B) (A) (B)
                 (B) (A) (B) (A) (B) (A) (B) (A) (A) (A) (B) (A)
                 (B) (B) (A) (A) (B) (A) (B) (A) (B) (B) (A) (B)
                 (B) (A) (B) (B) (A) (A) (B) (A) (A) (B) (A) (A)
                 (B) (B) (A) (B) (A) (B) (A) (B) (A) (A) (B) (B)
                 (A) (B) (A) (B) (A) (A) (B) (A) (B) (A) (B) (B)
                 (A) (A) (B) (B) (A) (A) (B) (A) (B) (B) (A) (B)
                 (A) (A) (B) (B) (A) (B) (A) (B) (A) (B) (A) (B)
                 (A) (B) (A) (B) (A) (B) (A) (A) (B) (A) (B) (B)
                 (A) (B) (B) (A) (B) (A) (A) (B) (A) (B) (A) (B)
                 (A) (B) (A) (B) (A) (A) (B) (A) (B) (A) (B) (A)
                 (A) (B) (A) (B) (A) (A) (B) (B) (A) (B) (A) (B)
                 (B) (A) (B) (A) (A) (B) (A) (B) (A) (B) (A) (B)
                 (A) (B) (A) (B) (B) (B) (A) (A) (A) (B) (A) (B)
                 (A) (B) (B) (B) (A) (A) (B) (A) (B) (B) (A) (A)
                 (B) (A) (B) (A) (B) (A) (A) (B) (A) (B) (A) (B)
                 (B) (A) (B) (A) (A) (B) (A) (B) (A) (B) (A) (B)
                 (B) (A) (B) (A) (A) (B) (B) (A) (B) (A) (B) (A)
                 (A) (B) (A) (B) (B) (A) (B) (A) (B) (A) (B) (A)
                 (B) (A) (B) (A) (B) (A) (A) (B) (A) (B) (A) (B)
                 (B) (A) (A) (B) (A) (B) (A) (B) (B) (A) (B) (A)
                 (B) (B) (A) (B) (A) (B) (A) (B) (A) (A) (B) (A)
                 (B) (A) (A) (B) (B) (A) (B) (A) (B) (A) (A) (B)
                 (B) (A) (B) (B) (A) (B) (A) (A) (B) (A) (B) (A)
                 (B) (A) (B) (A) (A) (B) (A) (B) (A) (A) (B) (B)
                 (A) (B) (B) (A) (B) (A) (B) (A) (B) (B) (A) (B)
                 (A) (A) (B) (B) (A) (A) (A) (B) (B) (A) (A) (B)
                 (B) (A) (B) (A) (A) (A) (B) (A) (B) (A) (B) (B)
                 (A) (B) (B) (A) (A) (B) (B) (B) (A) (A) (B) (A)
                 (A) (B) (B) (A) (A) (B) (B) (A) (A) (B) (A) (B)
                 (B) (A) (B) (A) (A) (B) (A) (B) (A) (B) (A) (B)
                 (A) (B) (B) (A) (B) (A) (A) (A) (B) (A) (B) (A)
                 (B) (B) (B) (B) (A) (B) (A) (A) (B) (A) (B) (A)
                 (A) (B) (A) (B) (A) (B) (B) (A) (B) (B) (A) (B)
                 (A) (B) (A) (A) (B) (B) (A) (B) (A) (A) (B) (B)
                 (A) (A) (A) (B) (A) (B) (A) (B) (B) (A) (B) (A)
                 (B) (A) (B) (B) (A) (A) (A) (B) (B) (A) (B) (A)
                 (B) (A) (A) (A) (B) (B) (B) (A) (B) (A) (B) (A)
                 (A) (B) (B) (A) (B) (A) (B) (A) (B) (A) (A) (B)
                 (A) (B) (A) (B) (B) (A) (B) (A) (B) (A) (B) (A)
                 (A) (B) (A) (B) (B) (A) (B) (B) (A) (B) (A) (B)
                 (A) (B) (A) (A) (B) (A) (B) (A) (B) (A) (B) (A)
                 (A) (B) (B) (A) (A) (A) (B) (B) (A) (B) (A) (A)
                 (B) (A) (A) (B) (B) (A) (B) (B) (B) (A) (A) (B)
                 (A) (B) (B) (A) (A) (B) (B) (A) (A) (B) (B) (A)
                 (B) (A) (A) (B) (A) (A) (B) (B) (A) (B) (A) (A)
                 (A) (B) (B) (B) (A) (A) (B) (B) (A) (B) (A) (A)
                 (B) (A) (A) (B) (B) (B) (A) (B) (B) (A) (A) (B)
                 (A) (B) (A) (B) (A) (B) (A) (B) (A) (B) (A) (A)
                 (B) (B) (A) (B) (A) (B) (A) (A) (B) (B) (A) (B)
                 (A) (A) (B) (A) (B) (B) (A) (B) (A) (A) (B) (A)
                 (B) (B) (A) (B) (B) (A) (B) (A) (A) (A) (B) (B)
                 (B) (A) (B) (B) (A) (A) (A) (B) (A) (B) (A) (B)
                 (A) (B) (A) (B) (A) (B) (A) (A) (B) (B) (A) (B)
                 (B) (A) (B) (A) (A) (B) (A) (B) (A) (B) (A) (A)
                 (B) (B) (B) (A) (B) (A) (A) (A) (B) (B) (A) (B)
                 (A) (B) (B) (A) (B) (A) (A) (B) (A) (B) (A) (B)
                 (A) (B) (A) (B) (A) (B) (B) (A) (B) (A) (A) (B)
                 (B) (A) (A) (B) (A) (B) (A) (B) (B) (A) (B) (A)
                 (B) (A) (B) (A) (B) (A) (B) (A) (B) (A) (A) (B)
                 (B) (B) (A) (A) (B) (A) (A) (B) (B) (A) (B) (A)
                 (A) (B) (B) (A) (B) (A) (A) (A) (B) (B) (A) (B)
                 (A) (B) (A) (B) (B) (A) (B) (A) (B) (A) (B) (A)
                 (B) (A) (B) (B) (A) (A) (B) (A) (B) (B) (A) (A)
                 (B) (A) (B) (A) (B) (A) (B) (A) (B) (B) (A) (A)
                 (A) (B) (A) (B) (A) (B) (A) (B) (A) (B) (A) (B)
                 (B) (A) (A) (B) (B) (A) (B) (A) (A) (B) (A) (B)
                 (A) (B) (A) (B) (A) (B) (B) (A) (B) (A) (A) (B)
                 (A) (B) (A) (B) (A) (B)
 The electronic state of the initial guess is 4-B.
 Initial guess <Sx>= 0.0000 <Sy>= 0.0000 <Sz>= 1.5000 <S**2>= 3.7500 S= 1.5000
 Requested convergence on RMS density matrix=1.00D-08 within  32 cycles.
 Requested convergence on MAX density matrix=1.00D-06.
 Requested convergence on             energy=1.00D-06.
 No special actions if energy rises.
 Inv3:  Mode=1 IEnd=    17222448.
 Iteration    1 A*A^-1 deviation from unit magnitude is 4.00D-15 for   1265.
 Iteration    1 A*A^-1 deviation from orthogonality  is 2.11D-15 for   1341   1264.
 Iteration    1 A^-1*A deviation from unit magnitude is 3.89D-15 for    994.
 Iteration    1 A^-1*A deviation from orthogonality  is 2.14D-15 for   1936   1017.
 EnCoef did   100 forward-backward iterations
 EnCoef did   100 forward-backward iterations
 Error on total polarization charges =  0.02277
 SCF Done:  E(UB3LYP) =  -2144.82295474     A.U. after   20 cycles
            NFock= 20  Conv=0.41D-08     -V/T= 2.0017
 <Sx>= 0.0000 <Sy>= 0.0000 <Sz>= 1.5000 <S**2>= 3.7613 S= 1.5028
 <L.S>=  0.00000000000    
 Annihilation of the first spin contaminant:
 S**2 before annihilation     3.7613,   after     3.7501
 QCSCF skips out because SCF is already converged.

 **********************************************************************

            Population analysis using the SCF Density.

 **********************************************************************

 Orbital symmetries:
 Alpha Orbitals:
       Occupied  (A) (A) (B) (A) (B) (B) (A) (B) (A) (B) (A) (B)
                 (A) (A) (B) (A) (B) (A) (B) (B) (A) (A) (B) (B)
                 (A) (A) (B) (B) (A) (A) (B) (A) (B) (A) (B) (A)
                 (B) (A) (B) (A) (B) (A) (B) (A) (B) (A) (B) (A)
                 (B) (A) (B) (A) (A) (B) (B) (A) (A) (B) (B) (B)
                 (A) (B) (A) (A) (B) (A) (B) (A) (B) (A) (B) (A)
                 (B) (A) (A) (B) (A) (A) (B) (A) (B) (B) (A) (B)
                 (A) (B) (A) (B) (A)
       Virtual   (A) (B) (B) (B) (A) (A) (B) (A) (B) (A) (A) (B)
                 (A) (B) (A) (A) (B) (B) (A) (A) (B) (B) (A) (A)
                 (B) (A) (B) (B) (A) (B) (A) (B) (A) (B) (A) (B)
                 (B) (A) (B) (B) (A) (B) (A) (B) (A) (A) (A) (B)
                 (A) (B) (A) (B) (A) (B) (B) (A) (A) (B) (A) (B)
                 (A) (A) (B) (B) (B) (B) (A) (A) (A) (A) (B) (B)
                 (B) (A) (A) (A) (B) (A) (B) (B) (A) (B) (A) (B)
                 (A) (B) (A) (B) (A) (A) (B) (B) (A) (B) (A) (B)
                 (A) (B) (A) (B) (A) (B) (B) (A) (A) (B) (B) (B)
                 (B) (A) (B) (A) (A) (B) (B) (A) (A) (A) (A) (B)
                 (B) (A) (A) (B) (B) (A) (A) (B) (A) (B) (B) (A)
                 (A) (B) (A) (A) (A) (B) (B) (B) (A) (B) (A) (B)
                 (A) (A) (A) (B) (B) (A) (B) (A) (B) (A) (A) (B)
                 (B) (B) (A) (A) (B) (A) (B) (B) (A) (B) (A) (B)
                 (A) (B) (A) (A) (B) (B) (A) (A) (B) (B) (A) (B)
                 (A) (B) (B) (A) (B) (A) (A) (A) (B) (B) (A) (B)
                 (A) (B) (A) (B) (A) (A) (B) (A) (B) (A) (B) (A)
                 (B) (B) (A) (A) (B) (B) (A) (B) (B) (A) (B) (A)
                 (B) (A) (B) (A) (A) (B) (B) (A) (A) (A) (A) (B)
                 (B) (B) (A) (A) (B) (B) (B) (A) (A) (B) (A) (A)
                 (B) (A) (A) (B) (B) (A) (B) (A) (B) (A) (B) (A)
                 (A) (B) (B) (A) (B) (B) (B) (A) (A) (B) (B) (A)
                 (B) (A) (B) (A) (B) (A) (A) (A) (B) (B) (A) (A)
                 (A) (B) (B) (B) (A) (A) (B) (A) (B) (A) (B) (B)
                 (A) (B) (A) (B) (B) (A) (B) (A) (A) (B) (A) (B)
                 (A) (A) (B) (A) (B) (A) (B) (A) (A) (B) (B) (A)
                 (B) (B) (A) (B) (A) (B) (A) (B) (B) (A) (A) (B)
                 (B) (A) (A) (B) (A) (B) (A) (A) (B) (A) (B) (A)
                 (B) (A) (A) (B) (A) (B) (A) (B) (B) (A) (B) (A)
                 (B) (B) (A) (B) (A) (B) (A) (B) (A) (A) (A) (B)
                 (B) (A) (B) (A) (B) (A) (B) (A) (B) (B) (A) (A)
                 (B) (A) (B) (A) (B) (A) (B) (A) (B) (A) (B) (B)
                 (A) (B) (A) (A) (A) (A) (B) (B) (A) (B) (B) (B)
                 (B) (A) (B) (A) (B) (A) (A) (B) (A) (A) (B) (B)
                 (A) (B) (A) (A) (B) (B) (B) (A) (B) (A) (B) (A)
                 (B) (A) (B) (B) (A) (A) (A) (B) (B) (A) (A) (A)
                 (B) (A) (B) (B) (A) (B) (A) (B) (A) (B) (B) (B)
                 (A) (A) (A) (A) (B) (B) (A) (B) (A) (B) (A) (A)
                 (B) (A) (A) (B) (B) (B) (B) (A) (A) (A) (B) (B)
                 (A) (B) (A) (A) (B) (B) (B) (A) (A) (B) (A) (A)
                 (B) (B) (B) (A) (B) (A) (B) (A) (A) (B) (B) (A)
                 (A) (A) (B) (B) (B) (B) (A) (A) (B) (A) (B) (A)
                 (A) (B) (A) (A) (B) (B) (A) (A) (B) (A) (B) (A)
                 (B) (A) (A) (B) (B) (A) (B) (A) (B) (A) (A) (B)
                 (A) (B) (A) (B) (B) (B) (A) (A) (B) (A) (B) (B)
                 (A) (A) (B) (A) (B) (B) (A) (B) (A) (A) (B) (A)
                 (B) (A) (A) (B) (A) (B) (A) (B) (A) (B) (A) (B)
                 (B) (A) (B) (A) (B) (A) (A) (B) (A) (B) (A) (B)
                 (A) (B) (B) (B) (A) (B) (A) (A) (B) (B) (A) (B)
                 (A) (A) (B) (B) (A) (A) (B) (B) (A) (A) (A) (B)
                 (B) (A) (A) (B) (A) (B) (B) (B) (A) (A) (B) (A)
                 (A) (B) (A) (B) (B) (A) (A) (A) (B) (B) (B) (B)
                 (A) (B) (A) (B) (A) (A) (B) (A) (B) (B) (A) (B)
                 (B) (A) (A) (A) (B) (A) (B) (A) (B) (A) (B) (A)
                 (B) (A) (B) (A) (A) (B) (B) (A) (B) (B) (A) (A)
                 (B) (A) (A) (B) (B) (A) (A) (B) (A) (B) (B) (B)
                 (A) (A) (B) (A) (A) (B) (B) (A) (B) (A) (B) (B)
                 (A) (B) (A) (A) (B) (A) (B) (A) (B) (A) (B) (A)
                 (B) (A) (B) (A) (B) (B) (A) (A) (B) (B) (A) (A)
                 (B) (A) (B) (A) (B) (B) (A) (B) (A) (B) (A) (B)
                 (A) (B) (A) (B) (A) (B) (A) (B) (A) (B) (B) (A)
                 (A) (B) (A) (A) (B) (B) (A) (B) (A) (A) (B) (B)
                 (A) (B) (A) (A) (B) (A) (B) (B) (A) (A) (B) (A)
                 (B) (B) (A) (B) (A) (B) (A) (B) (A) (B) (A) (B)
                 (A) (B) (A) (B) (A) (B) (B) (A) (A) (B) (A) (B)
                 (A) (B) (A) (B) (B) (A) (B) (A) (B) (A) (A) (A)
                 (B) (A) (B) (A) (B) (B) (A) (A) (B) (B) (A) (A)
                 (B) (B) (A) (B) (A) (A) (B) (A) (B) (A) (B) (A)
                 (B) (A) (B) (B) (A) (B) (A) (A) (B) (A) (B) (A)
                 (B) (A) (B)
 Beta  Orbitals:
       Occupied  (A) (A) (B) (B) (A) (B) (A) (B) (A) (B) (A) (B)
                 (A) (A) (B) (A) (B) (A) (B) (B) (A) (A) (B) (B)
                 (A) (A) (B) (B) (A) (A) (B) (A) (B) (A) (B) (A)
                 (B) (A) (B) (A) (B) (A) (B) (A) (B) (A) (B) (A)
                 (B) (A) (B) (A) (A) (B) (B) (A) (A) (B) (B) (B)
                 (A) (B) (A) (A) (A) (B) (B) (A) (B) (A) (B) (A)
                 (B) (A) (A) (B) (A) (B) (A) (B) (A) (B) (A) (B)
                 (A) (B)
       Virtual   (B) (A) (A) (A) (B) (B) (A) (B) (A) (A) (B) (A)
                 (B) (A) (A) (B) (A) (B) (B) (B) (A) (A) (B) (B)
                 (A) (A) (B) (A) (B) (A) (B) (B) (A) (A) (B) (A)
                 (B) (A) (B) (B) (A) (B) (B) (B) (A) (A) (B) (A)
                 (A) (A) (B) (A) (B) (A) (B) (A) (B) (B) (A) (A)
                 (B) (A) (B) (A) (A) (B) (B) (B) (B) (A) (A) (A)
                 (A) (B) (B) (B) (A) (A) (A) (B) (A) (B) (B) (A)
                 (B) (A) (B) (A) (B) (A) (B) (A) (A) (B) (B) (A)
                 (B) (A) (B) (A) (B) (A) (B) (A) (B) (B) (A) (A)
                 (B) (B) (B) (B) (A) (B) (A) (A) (B) (B) (A) (A)
                 (A) (A) (B) (B) (A) (A) (B) (B) (A) (B) (A) (A)
                 (B) (B) (A) (A) (B) (A) (A) (B) (A) (B) (B) (A)
                 (B) (A) (B) (A) (A) (B) (A) (B) (A) (B) (A) (B)
                 (A) (A) (B) (B) (B) (A) (A) (B) (A) (B) (B) (A)
                 (B) (A) (A) (B) (B) (A) (A) (B) (A) (B) (B) (B)
                 (A) (A) (B) (A) (B) (B) (A) (A) (B) (A) (A) (B)
                 (B) (A) (B) (A) (B) (A) (B) (A) (A) (B) (A) (A)
                 (B) (B) (A) (B) (B) (A) (A) (B) (B) (A) (B) (B)
                 (A) (B) (A) (B) (A) (B) (A) (A) (B) (B) (A) (A)
                 (A) (A) (B) (B) (B) (A) (A) (B) (B) (B) (A) (A)
                 (B) (A) (A) (B) (A) (A) (B) (B) (A) (B) (A) (B)
                 (A) (B) (A) (A) (B) (B) (A) (B) (B) (B) (A) (A)
                 (B) (B) (A) (B) (A) (B) (A) (B) (A) (A) (A) (B)
                 (B) (A) (A) (A) (B) (B) (A) (B) (A) (B) (A) (B)
                 (B) (A) (B) (A) (B) (A) (B) (B) (A) (B) (A) (A)
                 (A) (B) (B) (A) (A) (B) (A) (B) (A) (B) (A) (A)
                 (B) (B) (A) (B) (B) (A) (B) (A) (B) (A) (B) (B)
                 (A) (A) (B) (B) (A) (A) (B) (A) (B) (A) (A) (B)
                 (A) (B) (A) (B) (A) (A) (B) (B) (A) (A) (B) (B)
                 (A) (B) (A) (B) (B) (A) (B) (A) (B) (A) (B) (A)
                 (A) (A) (B) (B) (A) (B) (A) (B) (A) (B) (A) (B)
                 (B) (A) (B) (A) (A) (B) (A) (B) (A) (B) (A) (B)
                 (A) (B) (B) (A) (B) (A) (A) (A) (B) (A) (B) (A)
                 (B) (B) (B) (B) (A) (B) (A) (B) (A) (A) (B) (A)
                 (A) (B) (B) (A) (B) (A) (A) (B) (B) (B) (A) (B)
                 (A) (B) (A) (B) (B) (A) (B) (A) (A) (A) (B) (B)
                 (A) (A) (A) (B) (A) (B) (A) (B) (B) (A) (B) (A)
                 (B) (B) (A) (B) (A) (A) (A) (B) (B) (A) (B) (A)
                 (B) (A) (A) (B) (A) (B) (A) (B) (B) (B) (A) (A)
                 (A) (B) (B) (A) (B) (A) (A) (B) (B) (A) (B) (A)
                 (B) (A) (A) (B) (B) (B) (A) (A) (B) (B) (A) (A)
                 (B) (A) (B) (A) (B) (A) (B) (B) (B) (A) (A) (B)
                 (A) (B) (A) (A) (B) (A) (A) (B) (B) (A) (B) (A)
                 (A) (B) (B) (A) (A) (B) (A) (B) (A) (B) (A) (B)
                 (A) (A) (B) (A) (B) (A) (B) (B) (A) (B) (B) (A)
                 (A) (B) (B) (A) (A) (B) (A) (B) (B) (A) (B) (A)
                 (A) (B) (B) (A) (A) (B) (A) (A) (B) (A) (B) (A)
                 (B) (A) (B) (B) (A) (A) (B) (B) (A) (A) (B) (A)
                 (B) (A) (B) (A) (B) (B) (B) (A) (B) (A) (A) (B)
                 (A) (B) (A) (B) (B) (A) (B) (A) (A) (B) (A) (B)
                 (A) (A) (B) (B) (A) (A) (B) (A) (B) (B) (B) (A)
                 (A) (B) (A) (A) (B) (A) (B) (B) (A) (A) (A) (B)
                 (B) (B) (B) (A) (B) (A) (B) (A) (A) (B) (A) (B)
                 (B) (A) (B) (B) (A) (A) (A) (B) (A) (B) (A) (B)
                 (A) (B) (A) (B) (A) (B) (A) (A) (B) (B) (A) (B)
                 (B) (A) (A) (B) (A) (A) (B) (B) (A) (A) (B) (A)
                 (B) (B) (B) (A) (A) (B) (A) (A) (B) (B) (A) (B)
                 (A) (B) (B) (A) (B) (A) (A) (B) (A) (B) (A) (B)
                 (A) (B) (A) (B) (A) (B) (A) (B) (B) (A) (A) (B)
                 (B) (A) (A) (B) (A) (B) (A) (B) (B) (A) (B) (A)
                 (B) (A) (B) (A) (B) (A) (B) (A) (B) (A) (B) (A)
                 (B) (B) (A) (A) (B) (A) (A) (B) (B) (A) (B) (A)
                 (A) (B) (B) (A) (B) (A) (A) (B) (A) (B) (B) (A)
                 (A) (B) (A) (B) (B) (A) (B) (A) (B) (A) (B) (A)
                 (B) (A) (B) (A) (B) (A) (B) (A) (B) (B) (A) (A)
                 (B) (A) (B) (A) (B) (A) (B) (B) (A) (B) (A) (B)
                 (A) (A) (A) (B) (A) (B) (A) (B) (B) (A) (A) (B)
                 (B) (A) (A) (B) (B) (A) (B) (A) (A) (B) (A) (B)
                 (A) (B) (A) (B) (A) (B) (B) (A) (B) (A) (A) (B)
                 (A) (B) (A) (B) (A) (B)
 The electronic state is 4-B.
 Alpha  occ. eigenvalues -- -215.71718 -24.72533 -21.01117 -21.01020 -21.00996
 Alpha  occ. eigenvalues --  -19.11499 -19.11499 -19.10754 -19.10754 -19.09768
 Alpha  occ. eigenvalues --  -19.09768 -19.07598 -19.07598 -14.36108 -14.36108
 Alpha  occ. eigenvalues --  -10.28237 -10.28237 -10.27099 -10.27099 -10.22864
 Alpha  occ. eigenvalues --  -10.22864 -10.21470 -10.21452 -10.18452 -10.18452
 Alpha  occ. eigenvalues --   -2.93895  -1.89394  -1.89043  -1.88899  -1.10338
 Alpha  occ. eigenvalues --   -1.09874  -1.09007  -1.08753  -1.00332  -0.99634
 Alpha  occ. eigenvalues --   -0.98292  -0.98084  -0.97232  -0.95836  -0.81088
 Alpha  occ. eigenvalues --   -0.78719  -0.74421  -0.67897  -0.67473  -0.65136
 Alpha  occ. eigenvalues --   -0.58199  -0.56945  -0.56597  -0.55345  -0.55214
 Alpha  occ. eigenvalues --   -0.54121  -0.52455  -0.51473  -0.51143  -0.49495
 Alpha  occ. eigenvalues --   -0.48788  -0.47766  -0.47043  -0.46562  -0.45370
 Alpha  occ. eigenvalues --   -0.45070  -0.44622  -0.44227  -0.43808  -0.43467
 Alpha  occ. eigenvalues --   -0.43430  -0.41980  -0.40352  -0.39718  -0.39458
 Alpha  occ. eigenvalues --   -0.38863  -0.36565  -0.35491  -0.35406  -0.33620
 Alpha  occ. eigenvalues --   -0.33091  -0.31881  -0.31297  -0.30543  -0.28967
 Alpha  occ. eigenvalues --   -0.28847  -0.28691  -0.27180  -0.26647  -0.25878
 Alpha  occ. eigenvalues --   -0.25735  -0.22249  -0.21513  -0.20732
 Alpha virt. eigenvalues --   -0.00649  -0.00599   0.00298   0.00876   0.00898
 Alpha virt. eigenvalues --    0.01631   0.02144   0.02691   0.02913   0.03195
 Alpha virt. eigenvalues --    0.03667   0.04099   0.04243   0.04755   0.04992
 Alpha virt. eigenvalues --    0.05257   0.05707   0.05819   0.06582   0.06912
 Alpha virt. eigenvalues --    0.07391   0.07637   0.08434   0.08783   0.09140
 Alpha virt. eigenvalues --    0.09522   0.09691   0.10287   0.10568   0.10590
 Alpha virt. eigenvalues --    0.10681   0.11612   0.12015   0.12267   0.12798
 Alpha virt. eigenvalues --    0.13210   0.13643   0.13896   0.14550   0.14996
 Alpha virt. eigenvalues --    0.15064   0.15179   0.15463   0.15899   0.16363
 Alpha virt. eigenvalues --    0.16776   0.16944   0.17032   0.17400   0.17947
 Alpha virt. eigenvalues --    0.18421   0.18797   0.19210   0.19356   0.19677
 Alpha virt. eigenvalues --    0.19845   0.20869   0.20953   0.21382   0.21674
 Alpha virt. eigenvalues --    0.22124   0.22432   0.22655   0.22832   0.23047
 Alpha virt. eigenvalues --    0.23314   0.23473   0.24111   0.24292   0.24949
 Alpha virt. eigenvalues --    0.25286   0.25587   0.26035   0.26075   0.26179
 Alpha virt. eigenvalues --    0.26299   0.26695   0.26810   0.27371   0.27834
 Alpha virt. eigenvalues --    0.27932   0.28192   0.28656   0.28897   0.29478
 Alpha virt. eigenvalues --    0.29534   0.29534   0.30400   0.30448   0.30883
 Alpha virt. eigenvalues --    0.31149   0.31421   0.32144   0.32279   0.32445
 Alpha virt. eigenvalues --    0.32646   0.33056   0.33182   0.33655   0.33898
 Alpha virt. eigenvalues --    0.34339   0.34506   0.34731   0.35118   0.35499
 Alpha virt. eigenvalues --    0.35667   0.35987   0.36635   0.36813   0.37147
 Alpha virt. eigenvalues --    0.37701   0.37880   0.38142   0.38585   0.39202
 Alpha virt. eigenvalues --    0.39247   0.39883   0.40244   0.40408   0.40662
 Alpha virt. eigenvalues --    0.41447   0.41605   0.41886   0.42477   0.42805
 Alpha virt. eigenvalues --    0.42856   0.43151   0.43216   0.43354   0.43711
 Alpha virt. eigenvalues --    0.43854   0.44143   0.44265   0.45160   0.45206
 Alpha virt. eigenvalues --    0.45412   0.45877   0.45969   0.46660   0.46977
 Alpha virt. eigenvalues --    0.47283   0.47476   0.47652   0.48180   0.48628
 Alpha virt. eigenvalues --    0.48905   0.49148   0.49190   0.49309   0.49613
 Alpha virt. eigenvalues --    0.50163   0.50580   0.50796   0.50909   0.51725
 Alpha virt. eigenvalues --    0.51873   0.52531   0.52604   0.52761   0.53144
 Alpha virt. eigenvalues --    0.53681   0.53829   0.54116   0.54317   0.54614
 Alpha virt. eigenvalues --    0.54832   0.55095   0.55769   0.55833   0.55971
 Alpha virt. eigenvalues --    0.56446   0.56774   0.56898   0.57634   0.57699
 Alpha virt. eigenvalues --    0.58930   0.59126   0.59222   0.59314   0.60044
 Alpha virt. eigenvalues --    0.60048   0.60476   0.61284   0.61379   0.62386
 Alpha virt. eigenvalues --    0.62397   0.62531   0.63170   0.63272   0.63654
 Alpha virt. eigenvalues --    0.64044   0.64718   0.64869   0.65135   0.65616
 Alpha virt. eigenvalues --    0.65633   0.66001   0.66695   0.66857   0.67093
 Alpha virt. eigenvalues --    0.67974   0.68023   0.68268   0.68350   0.68538
 Alpha virt. eigenvalues --    0.68894   0.68928   0.69889   0.70456   0.70765
 Alpha virt. eigenvalues --    0.70912   0.71032   0.71173   0.71527   0.71575
 Alpha virt. eigenvalues --    0.71990   0.72408   0.72631   0.72891   0.73369
 Alpha virt. eigenvalues --    0.73438   0.74123   0.74318   0.74520   0.75139
 Alpha virt. eigenvalues --    0.75194   0.75580   0.75942   0.76177   0.76428
 Alpha virt. eigenvalues --    0.77233   0.77458   0.77674   0.78214   0.78924
 Alpha virt. eigenvalues --    0.79531   0.79707   0.79732   0.79965   0.80518
 Alpha virt. eigenvalues --    0.80690   0.81084   0.81685   0.81992   0.82059
 Alpha virt. eigenvalues --    0.82205   0.83076   0.83564   0.84041   0.84235
 Alpha virt. eigenvalues --    0.84433   0.84874   0.85451   0.85514   0.86620
 Alpha virt. eigenvalues --    0.87317   0.87739   0.88024   0.88229   0.88443
 Alpha virt. eigenvalues --    0.89508   0.90163   0.91078   0.91235   0.92355
 Alpha virt. eigenvalues --    0.93026   0.93081   0.93195   0.94390   0.94485
 Alpha virt. eigenvalues --    0.95239   0.96303   0.96813   0.97214   0.98076
 Alpha virt. eigenvalues --    0.99199   1.00154   1.00308   1.00542   1.01130
 Alpha virt. eigenvalues --    1.01211   1.02508   1.02839   1.03280   1.03629
 Alpha virt. eigenvalues --    1.04158   1.04344   1.05214   1.05674   1.06053
 Alpha virt. eigenvalues --    1.06749   1.06890   1.08674   1.08747   1.09044
 Alpha virt. eigenvalues --    1.09316   1.11057   1.11437   1.11444   1.12150
 Alpha virt. eigenvalues --    1.12496   1.14169   1.14810   1.15831   1.17313
 Alpha virt. eigenvalues --    1.17381   1.17731   1.17913   1.18974   1.19747
 Alpha virt. eigenvalues --    1.20494   1.21582   1.21602   1.22205   1.22795
 Alpha virt. eigenvalues --    1.23398   1.24862   1.25064   1.26345   1.26639
 Alpha virt. eigenvalues --    1.27239   1.27471   1.28377   1.29184   1.30180
 Alpha virt. eigenvalues --    1.30439   1.31116   1.31733   1.32183   1.33209
 Alpha virt. eigenvalues --    1.34031   1.34887   1.34935   1.35981   1.36074
 Alpha virt. eigenvalues --    1.36790   1.36909   1.37600   1.38341   1.38873
 Alpha virt. eigenvalues --    1.39357   1.39454   1.39758   1.40585   1.41049
 Alpha virt. eigenvalues --    1.41221   1.41934   1.43489   1.44069   1.44924
 Alpha virt. eigenvalues --    1.44935   1.45703   1.46215   1.47159   1.47626
 Alpha virt. eigenvalues --    1.48163   1.48451   1.50228   1.50805   1.50844
 Alpha virt. eigenvalues --    1.51032   1.52571   1.54099   1.54656   1.54882
 Alpha virt. eigenvalues --    1.55470   1.56243   1.59113   1.59666   1.61950
 Alpha virt. eigenvalues --    1.62465   1.63413   1.63552   1.64904   1.65810
 Alpha virt. eigenvalues --    1.67515   1.67826   1.69407   1.70134   1.71463
 Alpha virt. eigenvalues --    1.73382   1.74586   1.76051   1.77065   1.79018
 Alpha virt. eigenvalues --    1.79687   1.81564   1.82914   1.84733   1.85323
 Alpha virt. eigenvalues --    1.85357   1.86567   1.87034   1.87602   1.88252
 Alpha virt. eigenvalues --    1.89016   1.89569   1.89913   1.90664   1.91168
 Alpha virt. eigenvalues --    1.91511   1.91957   1.94074   1.95049   1.95606
 Alpha virt. eigenvalues --    1.95843   1.97186   1.98731   1.98865   2.00387
 Alpha virt. eigenvalues --    2.00999   2.01884   2.02012   2.02907   2.03843
 Alpha virt. eigenvalues --    2.04193   2.04325   2.06452   2.06795   2.07411
 Alpha virt. eigenvalues --    2.09115   2.10231   2.10293   2.11817   2.12387
 Alpha virt. eigenvalues --    2.12888   2.13356   2.13940   2.14713   2.14957
 Alpha virt. eigenvalues --    2.16014   2.17399   2.18849   2.19623   2.19808
 Alpha virt. eigenvalues --    2.20845   2.20894   2.21290   2.22762   2.23586
 Alpha virt. eigenvalues --    2.24796   2.26515   2.27443   2.27991   2.27992
 Alpha virt. eigenvalues --    2.28285   2.29047   2.30019   2.30742   2.31556
 Alpha virt. eigenvalues --    2.32137   2.33402   2.35299   2.36866   2.38826
 Alpha virt. eigenvalues --    2.39667   2.40415   2.40829   2.42292   2.42303
 Alpha virt. eigenvalues --    2.43500   2.46508   2.46788   2.47241   2.47828
 Alpha virt. eigenvalues --    2.48939   2.49462   2.50897   2.52823   2.52885
 Alpha virt. eigenvalues --    2.53926   2.54520   2.55798   2.56319   2.57106
 Alpha virt. eigenvalues --    2.57215   2.58355   2.60140   2.60585   2.60897
 Alpha virt. eigenvalues --    2.61332   2.62415   2.64167   2.64994   2.66012
 Alpha virt. eigenvalues --    2.66841   2.69858   2.69870   2.71245   2.71948
 Alpha virt. eigenvalues --    2.73358   2.73365   2.73567   2.75406   2.75411
 Alpha virt. eigenvalues --    2.76443   2.77355   2.77882   2.78921   2.79302
 Alpha virt. eigenvalues --    2.80417   2.80491   2.82512   2.82693   2.84264
 Alpha virt. eigenvalues --    2.85436   2.86449   2.87363   2.87521   2.89297
 Alpha virt. eigenvalues --    2.89474   2.90291   2.90633   2.91660   2.92710
 Alpha virt. eigenvalues --    2.95427   2.95598   2.96480   2.98566   2.98784
 Alpha virt. eigenvalues --    2.99782   3.01461   3.01685   3.01873   3.03541
 Alpha virt. eigenvalues --    3.03608   3.05257   3.06054   3.07762   3.08924
 Alpha virt. eigenvalues --    3.10416   3.10579   3.11460   3.12248   3.12882
 Alpha virt. eigenvalues --    3.13866   3.13945   3.16444   3.17265   3.17921
 Alpha virt. eigenvalues --    3.18193   3.19858   3.20293   3.20878   3.21680
 Alpha virt. eigenvalues --    3.22282   3.23591   3.24085   3.24157   3.26267
 Alpha virt. eigenvalues --    3.27035   3.28055   3.28545   3.29542   3.30034
 Alpha virt. eigenvalues --    3.30107   3.30694   3.32050   3.32764   3.33151
 Alpha virt. eigenvalues --    3.34383   3.34521   3.35247   3.35376   3.36580
 Alpha virt. eigenvalues --    3.36892   3.39602   3.39919   3.40002   3.40490
 Alpha virt. eigenvalues --    3.41249   3.42539   3.43049   3.43493   3.44693
 Alpha virt. eigenvalues --    3.45599   3.46195   3.47050   3.48658   3.49778
 Alpha virt. eigenvalues --    3.50591   3.51726   3.51965   3.53077   3.53376
 Alpha virt. eigenvalues --    3.54034   3.54323   3.55403   3.55570   3.56441
 Alpha virt. eigenvalues --    3.56455   3.57421   3.57862   3.58517   3.61255
 Alpha virt. eigenvalues --    3.61896   3.62090   3.63137   3.64681   3.65017
 Alpha virt. eigenvalues --    3.65656   3.66942   3.67426   3.67824   3.68275
 Alpha virt. eigenvalues --    3.69177   3.69953   3.70719   3.71403   3.71912
 Alpha virt. eigenvalues --    3.72383   3.73405   3.75479   3.76262   3.76423
 Alpha virt. eigenvalues --    3.77086   3.77449   3.78206   3.79283   3.80479
 Alpha virt. eigenvalues --    3.81028   3.81496   3.85207   3.86480   3.87971
 Alpha virt. eigenvalues --    3.88018   3.90092   3.91118   3.91185   3.92224
 Alpha virt. eigenvalues --    3.93599   3.93785   3.94576   3.96796   3.98236
 Alpha virt. eigenvalues --    4.01472   4.02639   4.03574   4.04848   4.05548
 Alpha virt. eigenvalues --    4.05725   4.07026   4.08654   4.10131   4.10890
 Alpha virt. eigenvalues --    4.12663   4.13471   4.14539   4.16908   4.17189
 Alpha virt. eigenvalues --    4.20269   4.20889   4.24367   4.26586   4.28811
 Alpha virt. eigenvalues --    4.29370   4.30751   4.32066   4.32818   4.37941
 Alpha virt. eigenvalues --    4.38408   4.40664   4.41726   4.43397   4.47229
 Alpha virt. eigenvalues --    4.49084   4.53495   4.53922   4.55776   4.58599
 Alpha virt. eigenvalues --    4.60282   4.62410   4.62610   4.65443   4.66410
 Alpha virt. eigenvalues --    4.70204   4.75039   4.75798   4.76444   4.77241
 Alpha virt. eigenvalues --    4.78398   4.79279   4.81463   4.82394   4.82807
 Alpha virt. eigenvalues --    4.83820   4.86971   4.91050   4.94377   4.95823
 Alpha virt. eigenvalues --    4.99401   4.99643   5.00646   5.04029   5.08397
 Alpha virt. eigenvalues --    5.09145   5.13332   5.18519   5.19195   5.19940
 Alpha virt. eigenvalues --    5.20714   5.22084   5.22524   5.22938   5.23070
 Alpha virt. eigenvalues --    5.23349   5.23774   5.25452   5.26942   5.27440
 Alpha virt. eigenvalues --    5.27653   5.29795   5.29900   5.30923   5.32424
 Alpha virt. eigenvalues --    5.33568   5.36461   5.38000   5.38640   5.38906
 Alpha virt. eigenvalues --    5.39816   5.40846   5.42269   5.46660   5.49718
 Alpha virt. eigenvalues --    5.51700   5.55044   5.60607   5.61363   5.64262
 Alpha virt. eigenvalues --    5.65061   5.65099   5.65842   5.67787   5.68301
 Alpha virt. eigenvalues --    5.76928   5.78097   5.78917   5.79507   5.80835
 Alpha virt. eigenvalues --    5.81112   5.84290   5.94070   5.94215   5.99378
 Alpha virt. eigenvalues --    6.06388   6.08338   6.10017   6.16430   6.17511
 Alpha virt. eigenvalues --    6.20915   6.21497   6.22451   6.24005   6.25278
 Alpha virt. eigenvalues --    6.30869   6.32769   6.35253   6.35883   6.40265
 Alpha virt. eigenvalues --    6.43277   6.43957   6.48114   6.54502   6.54885
[...]
    12  C    1.237558  -0.005103
    13  C    0.264251   0.011416
    14  O   -0.727256   0.008047
    15  O   -0.405700  -0.051443
    16  C   -0.380907  -0.003578
    17  C    0.490146   0.010331
    18  O   -0.727823   0.008816
    19  O   -0.437349  -0.046069
    28  C   -0.380907  -0.003578
    29  C    0.490146   0.010331
    30  O   -0.727823   0.008816
    31  O   -0.437349  -0.046069
 Electronic spatial extent (au):  <R**2>=           5378.5736
 Charge=             -1.0000 electrons
 Dipole moment (field-independent basis, Debye):
    X=             -0.0000    Y=             -0.0000    Z=            -21.6693  Tot=             21.6693
 Quadrupole moment (field-independent basis, Debye-Ang):
   XX=           -159.5021   YY=           -193.8191   ZZ=           -148.1930
   XY=             13.0014   XZ=             -0.0000   YZ=              0.0000
 Traceless Quadrupole moment (field-independent basis, Debye-Ang):
   XX=              7.6693   YY=            -26.6477   ZZ=             18.9784
   XY=             13.0014   XZ=             -0.0000   YZ=              0.0000
 Octapole moment (field-independent basis, Debye-Ang**2):
  XXX=              0.0000  YYY=             -0.0000  ZZZ=           -139.5413  XYY=             -0.0000
  XXY=             -0.0000  XXZ=           -167.1329  XZZ=             -0.0000  YZZ=             -0.0000
  YYZ=              7.6371  XYZ=              4.0456
 Hexadecapole moment (field-independent basis, Debye-Ang**3):
 XXXX=          -3646.9216 YYYY=          -3205.8300 ZZZZ=          -1730.0961 XXXY=            688.3358
 XXXZ=              0.0000 YYYX=            941.0642 YYYZ=              0.0000 ZZZX=             -0.0000
 ZZZY=              0.0000 XXYY=           -956.7128 XXZZ=          -1143.4137 YYZZ=           -621.2857
 XXYZ=             -0.0000 YYXZ=              0.0000 ZZXY=            240.2639
 N-N= 2.379343621870D+03 E-N=-9.839976257413D+03  KE= 2.138145975849D+03
 Symmetry A    KE= 1.351962235698D+03
 Symmetry B    KE= 7.861837401510D+02
 Symmetry A    SP= 2.000000000000D+00
 Symmetry B    SP= 1.000000000000D+00
                          Isotropic Fermi Contact Couplings
        Atom                 a.u.       MegaHertz       Gauss      10(-4) cm-1
     1  Cr(53)             0.22119     -18.66540      -6.66028      -6.22611
     2  O(17)              0.00057      -0.11602      -0.04140      -0.03870
     3  C(13)              0.00590       2.21185       0.78924       0.73779
     4  O(17)             -0.00142       0.28679       0.10233       0.09566
     5  C(13)              0.00167       0.62707       0.22375       0.20917
     6  N(14)             -0.02890      -3.11205      -1.11046      -1.03807
     7  C(13)              0.00266       0.99706       0.35578       0.33258
     8  H(1)              -0.00057      -0.84597      -0.30186      -0.28218
     9  H(1)              -0.00001      -0.01542      -0.00550      -0.00514
    10  C(13)              0.00266       0.99706       0.35578       0.33258
    11  N(14)             -0.02890      -3.11205      -1.11046      -1.03807
    12  C(13)              0.00167       0.62707       0.22375       0.20917
    13  C(13)              0.00590       2.21185       0.78924       0.73779
    14  O(17)              0.00057      -0.11602      -0.04140      -0.03870
    15  O(17)             -0.00142       0.28679       0.10233       0.09566
    16  C(13)              0.00099       0.37195       0.13272       0.12407
    17  C(13)              0.00295       1.10698       0.39500       0.36925
    18  O(17)              0.00091      -0.18445      -0.06582      -0.06153
    19  O(17)             -0.00318       0.64339       0.22958       0.21461
    20  H(1)               0.00015       0.21998       0.07849       0.07338
    21  H(1)               0.00017       0.24784       0.08844       0.08267
    22  H(1)               0.00016       0.23472       0.08376       0.07830
    23  H(1)               0.00263       3.91220       1.39597       1.30497
    24  H(1)              -0.00057      -0.84597      -0.30186      -0.28218
    25  H(1)              -0.00001      -0.01542      -0.00550      -0.00514
    26  H(1)               0.00263       3.91220       1.39597       1.30497
    27  H(1)               0.00016       0.23472       0.08376       0.07830
    28  C(13)              0.00099       0.37195       0.13272       0.12407
    29  C(13)              0.00295       1.10698       0.39500       0.36925
    30  O(17)              0.00091      -0.18445      -0.06582      -0.06153
    31  O(17)             -0.00318       0.64339       0.22958       0.21461
    32  H(1)               0.00015       0.21998       0.07849       0.07338
    33  H(1)               0.00017       0.24784       0.08844       0.08267
 --------------------------------------------------------
       Center         ----  Spin Dipole Couplings  ----
                      3XX-RR        3YY-RR        3ZZ-RR
 --------------------------------------------------------
     1   Atom       -0.077041     -0.027695      0.104736
     2   Atom       -0.032405     -0.004703      0.037108
     3   Atom       -0.010847      0.025608     -0.014761
     4   Atom       -0.001401     -0.037536      0.038937
     5   Atom        0.009892      0.002405     -0.012298
     6   Atom        0.008571     -0.007004     -0.001566
     7   Atom       -0.015706     -0.017400      0.033106
     8   Atom       -0.005111     -0.007012      0.012123
     9   Atom       -0.012789     -0.004340      0.017130
    10   Atom       -0.015706     -0.017400      0.033106
    11   Atom        0.008571     -0.007004     -0.001566
    12   Atom        0.009892      0.002405     -0.012298
    13   Atom       -0.010847      0.025608     -0.014761
    14   Atom       -0.032405     -0.004703      0.037108
    15   Atom       -0.001401     -0.037536      0.038937
    16   Atom        0.018067     -0.007499     -0.010569
    17   Atom        0.026343     -0.013931     -0.012412
    18   Atom       -0.018855      0.027393     -0.008539
    19   Atom       -0.042153     -0.007091      0.049244
    20   Atom        0.007387     -0.001636     -0.005750
    21   Atom        0.013237     -0.006775     -0.006462
    22   Atom        0.002960     -0.001946     -0.001014
    23   Atom        0.015565     -0.021900      0.006335
    24   Atom       -0.005111     -0.007012      0.012123
    25   Atom       -0.012789     -0.004340      0.017130
    26   Atom        0.015565     -0.021900      0.006335
    27   Atom        0.002960     -0.001946     -0.001014
    28   Atom        0.018067     -0.007499     -0.010569
    29   Atom        0.026343     -0.013931     -0.012412
    30   Atom       -0.018855      0.027393     -0.008539
    31   Atom       -0.042153     -0.007091      0.049244
    32   Atom        0.007387     -0.001636     -0.005750
    33   Atom        0.013237     -0.006775     -0.006462
 --------------------------------------------------------
                        XY            XZ            YZ
 --------------------------------------------------------
     1   Atom        0.222059      0.000000     -0.000000
     2   Atom        0.005343     -0.019372     -0.015933
     3   Atom       -0.022615      0.003909     -0.014684
     4   Atom        0.002849     -0.015630      0.036558
     5   Atom       -0.023907      0.016823     -0.010242
     6   Atom        0.003285      0.006936      0.006884
     7   Atom       -0.000576      0.008048     -0.009414
     8   Atom       -0.000535      0.006551     -0.001678
     9   Atom       -0.001367      0.002566     -0.015407
    10   Atom       -0.000576     -0.008048      0.009414
    11   Atom        0.003285     -0.006936     -0.006884
    12   Atom       -0.023907     -0.016823      0.010242
    13   Atom       -0.022615     -0.003909      0.014684
    14   Atom        0.005343      0.019372      0.015933
    15   Atom        0.002849      0.015630     -0.036558
    16   Atom       -0.011339     -0.001610      0.001949
    17   Atom       -0.006227      0.017242     -0.005912
    18   Atom        0.033101     -0.002390     -0.023799
    19   Atom       -0.005507     -0.019056     -0.012614
    20   Atom       -0.007395      0.000645     -0.000243
    21   Atom       -0.002419     -0.003047      0.000329
    22   Atom       -0.007745     -0.008481      0.006071
    23   Atom        0.006245     -0.031706     -0.007635
    24   Atom       -0.000535     -0.006551      0.001678
    25   Atom       -0.001367     -0.002566      0.015407
    26   Atom        0.006245      0.031706      0.007635
    27   Atom       -0.007745      0.008481     -0.006071
    28   Atom       -0.011339      0.001610     -0.001949
    29   Atom       -0.006227     -0.017242      0.005912
    30   Atom        0.033101      0.002390      0.023799
    31   Atom       -0.005507      0.019056      0.012614
    32   Atom       -0.007395     -0.000645      0.000243
    33   Atom       -0.002419      0.003047     -0.000329
 --------------------------------------------------------


 ---------------------------------------------------------------------------------
              Anisotropic Spin Dipole Couplings in Principal Axis System
 ---------------------------------------------------------------------------------

       Atom             a.u.   MegaHertz   Gauss  10(-4) cm-1        Axes

              Baa    -0.2758     8.334     2.974     2.780  0.7451 -0.6669 -0.0000
     1 Cr(53) Bbb     0.1047    -3.165    -1.129    -1.056  0.0000  0.0000  1.0000
              Bcc     0.1711    -5.169    -1.844    -1.724  0.6669  0.7451 -0.0000
 
              Baa    -0.0375     2.712     0.968     0.905  0.9692 -0.0397  0.2432
     2 O(17)  Bbb    -0.0100     0.726     0.259     0.242 -0.0378  0.9513  0.3060
              Bcc     0.0475    -3.439    -1.227    -1.147 -0.2435 -0.3057  0.9205
 
              Baa    -0.0233    -3.128    -1.116    -1.043  0.7189  0.4826  0.5003
     3 C(13)  Bbb    -0.0172    -2.304    -0.822    -0.768 -0.5643 -0.0150  0.8254
              Bcc     0.0405     5.431     1.938     1.812 -0.4058  0.8757 -0.2615
 
              Baa    -0.0536     3.880     1.384     1.294 -0.1652  0.9075 -0.3863
     4 O(17)  Bbb    -0.0031     0.226     0.081     0.076  0.9596  0.2383  0.1495
              Bcc     0.0567    -4.106    -1.465    -1.370 -0.2277  0.3460  0.9102
 
              Baa    -0.0220    -2.955    -1.054    -0.986 -0.6004 -0.2723  0.7519
     5 C(13)  Bbb    -0.0159    -2.131    -0.760    -0.711  0.3452  0.7598  0.5509
              Bcc     0.0379     5.086     1.815     1.697  0.7214 -0.5903  0.3622
 
              Baa    -0.0118    -0.454    -0.162    -0.151  0.0717  0.8036 -0.5908
     6 N(14)  Bbb    -0.0022    -0.084    -0.030    -0.028 -0.5702  0.5190  0.6368
              Bcc     0.0139     0.538     0.192     0.179  0.8184  0.2912  0.4954
 
              Baa    -0.0194    -2.603    -0.929    -0.868 -0.3254  0.9208  0.2150
     7 C(13)  Bbb    -0.0167    -2.235    -0.797    -0.745  0.9331  0.3495 -0.0848
              Bcc     0.0360     4.837     1.726     1.614  0.1532 -0.1730  0.9729
 
              Baa    -0.0073    -3.907    -1.394    -1.303  0.9291 -0.1716 -0.3278
     8 H(1)   Bbb    -0.0072    -3.815    -1.361    -1.273  0.1888  0.9818  0.0213
              Bcc     0.0145     7.723     2.756     2.576  0.3181 -0.0817  0.9445
 
              Baa    -0.0130    -6.942    -2.477    -2.316  0.9964  0.0693 -0.0494
     9 H(1)   Bbb    -0.0124    -6.607    -2.357    -2.204 -0.0385  0.8844  0.4651
              Bcc     0.0254    13.549     4.835     4.519  0.0759 -0.4615  0.8839
 
              Baa    -0.0194    -2.603    -0.929    -0.868 -0.3254  0.9208 -0.2150
    10 C(13)  Bbb    -0.0167    -2.235    -0.797    -0.745  0.9331  0.3495  0.0848
              Bcc     0.0360     4.837     1.726     1.614 -0.1532  0.1730  0.9729
 
              Baa    -0.0118    -0.454    -0.162    -0.151  0.0717  0.8036  0.5908
    11 N(14)  Bbb    -0.0022    -0.084    -0.030    -0.028  0.5702 -0.5190  0.6368
              Bcc     0.0139     0.538     0.192     0.179  0.8184  0.2912 -0.4954
 
              Baa    -0.0220    -2.955    -1.054    -0.986  0.6004  0.2723  0.7519
    12 C(13)  Bbb    -0.0159    -2.131    -0.760    -0.711  0.3452  0.7598 -0.5509
              Bcc     0.0379     5.086     1.815     1.697  0.7214 -0.5903 -0.3622
 
              Baa    -0.0233    -3.128    -1.116    -1.043  0.7189  0.4826 -0.5003
    13 C(13)  Bbb    -0.0172    -2.304    -0.822    -0.768  0.5643  0.0150  0.8254
              Bcc     0.0405     5.431     1.938     1.812 -0.4058  0.8757  0.2615
 
              Baa    -0.0375     2.712     0.968     0.905  0.9692 -0.0397 -0.2432
    14 O(17)  Bbb    -0.0100     0.726     0.259     0.242 -0.0378  0.9513 -0.3060
              Bcc     0.0475    -3.439    -1.227    -1.147  0.2435  0.3057  0.9205
 
              Baa    -0.0536     3.880     1.384     1.294 -0.1652  0.9075  0.3863
    15 O(17)  Bbb    -0.0031     0.226     0.081     0.076  0.9596  0.2383 -0.1495
              Bcc     0.0567    -4.106    -1.465    -1.370  0.2277 -0.3460  0.9102
 
              Baa    -0.0126    -1.694    -0.604    -0.565  0.2648  0.7943 -0.5468
    16 C(13)  Bbb    -0.0099    -1.328    -0.474    -0.443  0.2476  0.4921  0.8346
              Bcc     0.0225     3.022     1.078     1.008  0.9320 -0.3564 -0.0663
 
              Baa    -0.0209    -2.801    -0.999    -0.934 -0.2393  0.4962  0.8346
    17 C(13)  Bbb    -0.0133    -1.790    -0.639    -0.597  0.3149  0.8528 -0.4167
              Bcc     0.0342     4.591     1.638     1.531  0.9185 -0.1631  0.3603
 
              Baa    -0.0393     2.842     1.014     0.948  0.7908 -0.5122 -0.3350
    18 O(17)  Bbb    -0.0135     0.979     0.349     0.326  0.4605  0.1375  0.8769
              Bcc     0.0528    -3.821    -1.363    -1.275  0.4031  0.8478 -0.3446
 
              Baa    -0.0475     3.441     1.228     1.148  0.9568  0.1970  0.2140
    19 O(17)  Bbb    -0.0076     0.548     0.196     0.183 -0.2291  0.9637  0.1371
              Bcc     0.0551    -3.989    -1.423    -1.331 -0.1793 -0.1802  0.9672
 
              Baa    -0.0059    -3.140    -1.121    -1.047 -0.3777 -0.6177  0.6898
    20 H(1)   Bbb    -0.0057    -3.030    -1.081    -1.011  0.3129  0.6159  0.7230
              Bcc     0.0116     6.170     2.202     2.058  0.8715 -0.4889  0.0393
 
              Baa    -0.0071    -3.772    -1.346    -1.258  0.1475  0.9650  0.2168
    21 H(1)   Bbb    -0.0069    -3.689    -1.316    -1.231  0.1177 -0.2348  0.9649
              Bcc     0.0140     7.461     2.662     2.489  0.9820 -0.1168 -0.1482
 
              Baa    -0.0077    -4.135    -1.475    -1.379  0.6967  0.2133  0.6849
    22 H(1)   Bbb    -0.0075    -4.028    -1.437    -1.344  0.2245  0.8419 -0.4907
              Bcc     0.0153     8.163     2.913     2.723  0.6813 -0.4956 -0.5387
 
              Baa    -0.0242   -12.921    -4.611    -4.310  0.2130  0.8728  0.4392
    23 H(1)   Bbb    -0.0202   -10.777    -3.845    -3.595  0.6311 -0.4660  0.6201
              Bcc     0.0444    23.698     8.456     7.905  0.7459  0.1451 -0.6501
 
              Baa    -0.0073    -3.907    -1.394    -1.303  0.9291 -0.1716  0.3278
    24 H(1)   Bbb    -0.0072    -3.815    -1.361    -1.273  0.1888  0.9818 -0.0213
              Bcc     0.0145     7.723     2.756     2.576 -0.3181  0.0817  0.9445
 
              Baa    -0.0130    -6.942    -2.477    -2.316  0.9964  0.0693  0.0494
    25 H(1)   Bbb    -0.0124    -6.607    -2.357    -2.204 -0.0385  0.8844 -0.4651
              Bcc     0.0254    13.549     4.835     4.519 -0.0759  0.4615  0.8839
 
              Baa    -0.0242   -12.921    -4.611    -4.310  0.2130  0.8728 -0.4392
    26 H(1)   Bbb    -0.0202   -10.777    -3.845    -3.595  0.6311 -0.4660 -0.6201
              Bcc     0.0444    23.698     8.456     7.905  0.7459  0.1451  0.6501
 
              Baa    -0.0077    -4.135    -1.475    -1.379  0.6967  0.2133 -0.6849
    27 H(1)   Bbb    -0.0075    -4.028    -1.437    -1.344  0.2245  0.8419  0.4907
              Bcc     0.0153     8.163     2.913     2.723  0.6813 -0.4956  0.5387
 
              Baa    -0.0126    -1.694    -0.604    -0.565  0.2648  0.7943  0.5468
    28 C(13)  Bbb    -0.0099    -1.328    -0.474    -0.443 -0.2476 -0.4921  0.8346
              Bcc     0.0225     3.022     1.078     1.008  0.9320 -0.3564  0.0663
 
              Baa    -0.0209    -2.801    -0.999    -0.934  0.2393 -0.4962  0.8346
    29 C(13)  Bbb    -0.0133    -1.790    -0.639    -0.597  0.3149  0.8528  0.4167
              Bcc     0.0342     4.591     1.638     1.531  0.9185 -0.1631 -0.3603
 
              Baa    -0.0393     2.842     1.014     0.948  0.7908 -0.5122  0.3350
    30 O(17)  Bbb    -0.0135     0.979     0.349     0.326 -0.4605 -0.1375  0.8769
              Bcc     0.0528    -3.821    -1.363    -1.275  0.4031  0.8478  0.3446
 
              Baa    -0.0475     3.441     1.228     1.148  0.9568  0.1970 -0.2140
    31 O(17)  Bbb    -0.0076     0.548     0.196     0.183 -0.2291  0.9637 -0.1371
              Bcc     0.0551    -3.989    -1.423    -1.331  0.1793  0.1802  0.9672
 
              Baa    -0.0059    -3.140    -1.121    -1.047  0.3777  0.6177  0.6898
    32 H(1)   Bbb    -0.0057    -3.030    -1.081    -1.011 -0.3129 -0.6159  0.7230
              Bcc     0.0116     6.170     2.202     2.058  0.8715 -0.4889 -0.0393
 
              Baa    -0.0071    -3.772    -1.346    -1.258  0.1475  0.9650 -0.2168
    33 H(1)   Bbb    -0.0069    -3.689    -1.316    -1.231 -0.1177  0.2348  0.9649
              Bcc     0.0140     7.461     2.662     2.489  0.9820 -0.1168  0.1482
 

 ---------------------------------------------------------------------------------

 Unable to Open any file for archive entry.
 1\1\GINC-A016\FOpt\UB3LYP\Gen\C10H12Cr1N2O8(1-,4)\ZDRAHALA\21-May-2025
 \0\\#b3lyp/GEN opt scrf=(cpcm,solvent=water) scf(xqc)\\CrO komplex, za
 kl stav\\-1,4\Cr,0.,0.,0.2095374507\O,-2.3610201479,-3.171859286,-0.35
 09350117\C,-1.5049776257,-2.2961747467,-0.35973262\O,-1.6593771725,-1.
 0942023387,0.0937452403\C,-0.0973783412,-2.5932274668,-0.9169343624\N,
 0.4992924108,-1.3059296921,-1.3509590863\C,-0.0776286084,-0.7553767819
 ,-2.6096635757\H,0.4044201624,-1.1964839737,-3.4831175561\H,-1.1334398
 234,-1.0226279997,-2.642154186\C,0.0776286084,0.7553767819,-2.60966357
 57\N,-0.4992924108,1.3059296921,-1.3509590863\C,0.0973783412,2.5932274
 668,-0.9169343624\C,1.5049776257,2.2961747467,-0.35973262\O,2.36102014
 79,3.171859286,-0.3509350117\O,1.6593771725,1.0942023387,0.0937452403\
 C,-0.7794780551,3.265272176,0.1451084339\C,-1.0663060768,2.5002208865,
 1.447317408\O,-1.5833429279,3.1243533944,2.3724991679\O,-0.784034145,1
 .2414693148,1.5189585245\H,-0.3251002663,4.2171828525,0.4188240019\H,-
 1.7502566934,3.5124974203,-0.294753735\H,0.1969449617,3.2758059874,-1.
 7634805263\H,-1.5048599782,1.408972224,-1.459798238\H,-0.4044201624,1.
 1964839737,-3.4831175561\H,1.1334398234,1.0226279997,-2.642154186\H,1.
 5048599782,-1.408972224,-1.459798238\H,-0.1969449617,-3.2758059874,-1.
 7634805263\C,0.7794780551,-3.265272176,0.1451084339\C,1.0663060768,-2.
 5002208865,1.447317408\O,1.5833429279,-3.1243533944,2.3724991679\O,0.7
 84034145,-1.2414693148,1.5189585245\H,0.3251002663,-4.2171828525,0.418
 8240019\H,1.7502566934,-3.5124974203,-0.294753735\\Version=ES64L-G16Re
 vC.01\State=4-B\HF=-2144.9813484\S2=3.769091\S2-1=0.\S2A=3.75013\RMSD=
 2.421e-09\RMSF=1.086e-05\Dipole=0.,0.,-8.5253601\Quadrupole=-3.1953092
 ,-10.9146601,14.1099693,-15.5331201,0.,0.\PG=C02 [C2(Cr1),X(C10H12N2O8
 )]\\@
 The archive entry for this job was punched.


 VIRTUE IS LEARNED AT YOUR MOTHER'S KNEE,
 VICES ARE PICKED UP AT SOME OTHER JOINT.
 Job cpu time:       3 days 18 hours  2 minutes 37.5 seconds.
 Elapsed time:       0 days  2 hours 38 minutes 23.5 seconds.
 File lengths (MBytes):  RWF=    962 Int=      0 D2E=      0 Chk=     83 Scr=      1
 Normal termination of Gaussian 16 at Wed May 21 21:06:59 2025.
