 Entering Gaussian System, Link 0=/uochb/soft/generic/gaussian/gaussian16_a03/arch/amd64-pgi_12.10-acml/g16/g16
 Input=roa_gs.inp
 Output=roa_gs.log
 Initial command:
 /uochb/soft/generic/gaussian/gaussian16_a03/arch/amd64-pgi_12.10-acml/g16/l1.exe "/scratch/slurm_jobs/kessler/10450838/Gau-225012.inp" -scrdir="/scratch/slurm_jobs/kessler/10450838/"
 Entering Link 1 = /uochb/soft/generic/gaussian/gaussian16_a03/arch/amd64-pgi_12.10-acml/g16/l1.exe PID=    225013.
  
 Copyright (c) 1988,1990,1992,1993,1995,1998,2003,2009,2016,
            Gaussian, Inc.  All Rights Reserved.
  
 This is part of the Gaussian(R) 16 program.  It is based on
 the Gaussian(R) 09 system (copyright 2009, Gaussian, Inc.),
 the Gaussian(R) 03 system (copyright 2003, Gaussian, Inc.),
 the Gaussian(R) 98 system (copyright 1998, Gaussian, Inc.),
 the Gaussian(R) 94 system (copyright 1995, Gaussian, Inc.),
 the Gaussian 92(TM) system (copyright 1992, Gaussian, Inc.),
 the Gaussian 90(TM) system (copyright 1990, Gaussian, Inc.),
 the Gaussian 88(TM) system (copyright 1988, Gaussian, Inc.),
 the Gaussian 86(TM) system (copyright 1986, Carnegie Mellon
 University), and the Gaussian 82(TM) system (copyright 1983,
 Carnegie Mellon University). Gaussian is a federally registered
 trademark of Gaussian, Inc.
  
 This software contains proprietary and confidential information,
 including trade secrets, belonging to Gaussian, Inc.
  
 This software is provided under written license and may be
 used, copied, transmitted, or stored only in accord with that
 written license.
  
 The following legend is applicable only to US Government
 contracts under FAR:
  
                    RESTRICTED RIGHTS LEGEND
  
 Use, reproduction and disclosure by the US Government is
 subject to restrictions as set forth in subparagraphs (a)
 and (c) of the Commercial Computer Software - Restricted
 Rights clause in FAR 52.227-19.
  
 Gaussian, Inc.
 340 Quinnipiac St., Bldg. 40, Wallingford CT 06492
  
  
 ---------------------------------------------------------------
 Warning -- This program may not be used in any manner that
 competes with the business of Gaussian, Inc. or will provide
 assistance to any competitor of Gaussian, Inc.  The licensee
 of this program is prohibited from giving any competitor of
 Gaussian, Inc. access to this program.  By using this program,
 the user acknowledges that Gaussian, Inc. is engaged in the
 business of creating and licensing software in the field of
 computational chemistry and represents and warrants to the
 licensee that it is not a competitor of Gaussian, Inc. and that
 it will not use this program in any manner prohibited above.
 ---------------------------------------------------------------
  

 Cite this work as:
 Gaussian 16, Revision A.03,
 M. J. Frisch, G. W. Trucks, H. B. Schlegel, G. E. Scuseria, 
 M. A. Robb, J. R. Cheeseman, G. Scalmani, V. Barone, 
 G. A. Petersson, H. Nakatsuji, X. Li, M. Caricato, A. V. Marenich, 
 J. Bloino, B. G. Janesko, R. Gomperts, B. Mennucci, H. P. Hratchian, 
 J. V. Ortiz, A. F. Izmaylov, J. L. Sonnenberg, D. Williams-Young, 
 F. Ding, F. Lipparini, F. Egidi, J. Goings, B. Peng, A. Petrone, 
 T. Henderson, D. Ranasinghe, V. G. Zakrzewski, J. Gao, N. Rega, 
 G. Zheng, W. Liang, M. Hada, M. Ehara, K. Toyota, R. Fukuda, 
 J. Hasegawa, M. Ishida, T. Nakajima, Y. Honda, O. Kitao, H. Nakai, 
 T. Vreven, K. Throssell, J. A. Montgomery, Jr., J. E. Peralta, 
 F. Ogliaro, M. J. Bearpark, J. J. Heyd, E. N. Brothers, K. N. Kudin, 
 V. N. Staroverov, T. A. Keith, R. Kobayashi, J. Normand, 
 K. Raghavachari, A. P. Rendell, J. C. Burant, S. S. Iyengar, 
 J. Tomasi, M. Cossi, J. M. Millam, M. Klene, C. Adamo, R. Cammi, 
 J. W. Ochterski, R. L. Martin, K. Morokuma, O. Farkas, 
 J. B. Foresman, and D. J. Fox, Gaussian, Inc., Wallingford CT, 2016.
 
 ******************************************
 Gaussian 16:  ES64L-G16RevA.03 25-Dec-2016
                18-Oct-2024 
 ******************************************
 %nproc=36
 Will use up to   36 processors via shared memory.
 %mem=8GB
 %chk=sragora.chk
 ----------------------------------------------------------------------
 #b3lyp/6-311++G** scrf=(cpcm,Solvent=Water) nosymm p freq=(roa,savenm)
  iop(2/11=1)
 ----------------------------------------------------------------------
 1/10=4,30=1,38=1,83=21/1,3;
 2/11=1,12=2,15=1,17=6,18=5,40=1/2;
 3/5=4,6=6,7=1111,11=2,25=1,30=1,36=2,70=2101,71=2,72=1,74=-5,140=1/1,2,3;
 4//1;
 5/5=2,38=5,53=1,98=1/2;
 8/6=4,10=90,11=11/1;
 10/13=10,15=4,31=1,49=111,72=3/2;
 11/6=3,8=1,9=11,15=111,16=1,31=1/1,2,10;
 10/6=1,31=1,49=111/2;
 6/7=2,8=2,9=2,10=2,28=1/1;
 7/8=1,10=1,25=1,30=1,92=1/1,2,3,16;
 1/10=4,30=1/3;
 99//99;
 -------------------------------------------
 Last Z-matrix Geometry from Gaussian output
 -------------------------------------------
 Symbolic Z-matrix:
 Charge = -1 Multiplicity = 6
 Fe                    20.00561   19.98006   20.78949 
 O                     16.95764   17.42533   20.13472 
 C                     18.00104   18.07607   20.13094 
 O                     18.12403   19.27587   20.59443 
 C                     19.30485   17.45623   19.58202 
 N                     20.1892   18.56369   19.14394 
 C                     19.76461   19.25794   17.89732 
 H                     18.67424   19.25332   17.85923 
 H                     20.13123   18.73113   17.01282 
 C                     20.27772   20.69744   17.91537 
 N                     19.79875   21.3787   19.1516 
 C                     20.6216   22.5283   19.59678 
 C                     21.95822   21.98395   20.14011 
 O                     22.96023   22.70151   20.1771 
 O                     21.90808   20.77248   20.58429 
 C                     19.91229   23.35301   20.69809 
 C                     19.59012   22.67108   22.03366 
 O                     19.59955   21.38757   22.10205 
 O                     19.2827   23.37666   23.01036 
 H                     20.51744   24.23405   20.9162 
 H                     18.96143   23.73229   20.30747 
 H                     20.83464   23.20523   18.76512 
 H                     18.82722   21.67175   18.9951 
 H                     19.93798   21.23081   17.02402 
 H                     21.36914   20.70486   17.91082 
 H                     21.14401   18.22755   19.03875 
 H                     19.0483   16.80556   18.74227 
 C                     19.97631   16.5858   20.66124 
 C                     20.4537   17.26231   21.94994 
 O                     20.58509   18.54555   21.98491 
 O                     20.7299   16.55022   22.92444 
 H                     19.27705   15.79877   20.94834 
 H                     20.84955   16.08409   20.22943 
 O                     16.05582   18.58298   23.54087 
 H                     16.8914   18.93164   23.90949 
 H                     15.48848   18.43591   24.30509 
 O                     23.46097   15.00401   21.55235 
 H                     23.95146   14.53821   20.86508 
 H                     22.65579   14.48437   21.71499 
 O                     16.2824   22.73116   23.11144 
 H                     17.20561   23.02132   23.09165 
 H                     16.24466   22.00957   22.47083 
 O                     20.7215   13.82348   22.68907 
 H                     19.88577   13.50259   22.33944 
 H                     20.59671   14.78392   22.8335 
 O                     17.07524   22.07734   18.19115 
 H                     16.95804   21.88825   17.25134 
 H                     16.78006   22.9899   18.29606 
 O                     16.06171   14.83707   19.68774 
 H                     16.37569   15.76088   19.66509 
 H                     15.16567   14.85583   19.33226 
 O                     26.10186   20.79489   19.69182 
 H                     26.73175   21.38397   20.1249 
 H                     25.25113   21.24792   19.77533 
 O                     24.24067   17.63966   22.44339 
 H                     23.85903   16.80527   22.11618 
 H                     24.95599   17.36371   23.02739 
 O                     23.44194   20.4121   22.97409 
 H                     23.75318   19.49227   22.9124 
 H                     22.91943   20.52403   22.15984 
 O                     18.57     19.51015   24.52094 
 H                     18.60969   20.3837   24.96627 
 H                     19.12935   19.62535   23.73985 
 O                     24.35633   23.12803   22.87354 
 H                     24.03322   23.21529   21.96541 
 H                     24.18745   22.18737   23.06755 
 O                     17.1579   15.26692   22.56996 
 H                     16.94598   16.20185   22.69209 
 H                     16.68127   15.01735   21.76065 
 O                     18.33004   25.6022   24.55947 
 H                     19.03516   25.97899   25.09795 
 H                     18.7737   24.97075   23.97014 
 O                     18.82585   22.063    25.59145 
 H                     19.07451   22.55034   24.78291 
 H                     19.54358   22.20394   26.21819 
 O                     24.87145   24.70248   19.63626 
 H                     24.52285   25.59744   19.69934 
 H                     24.09845   24.12068   19.71375 
 O                     20.89236   17.58677   25.56732 
 H                     20.93714   17.22692   24.66186 
 H                     20.16083   18.22373   25.50943 
 
 Using perturbation frequencies:    0.027614    0.070097    0.085969

 GradGradGradGradGradGradGradGradGradGradGradGradGradGradGradGradGradGrad
 Berny optimization.
 Initialization pass.
 Trust Radius=3.00D-01 FncErr=1.00D-07 GrdErr=1.00D-07 EigMax=2.50D+02 EigMin=1.00D-04
 Number of steps in this run=      2 maximum allowed number of steps=      2.
 GradGradGradGradGradGradGradGradGradGradGradGradGradGradGradGradGradGrad

                          Input orientation:                          
 ---------------------------------------------------------------------
 Center     Atomic      Atomic             Coordinates (Angstroms)
 Number     Number       Type             X           Y           Z
 ---------------------------------------------------------------------
      1         26           0       20.005611   19.980061   20.789490
      2          8           0       16.957639   17.425328   20.134716
      3          6           0       18.001042   18.076065   20.130937
      4          8           0       18.124034   19.275873   20.594431
      5          6           0       19.304845   17.456231   19.582023
      6          7           0       20.189195   18.563692   19.143940
      7          6           0       19.764613   19.257940   17.897318
      8          1           0       18.674243   19.253323   17.859230
      9          1           0       20.131226   18.731132   17.012823
     10          6           0       20.277720   20.697438   17.915366
     11          7           0       19.798747   21.378702   19.151602
     12          6           0       20.621605   22.528300   19.596785
     13          6           0       21.958216   21.983952   20.140115
     14          8           0       22.960229   22.701512   20.177098
     15          8           0       21.908079   20.772481   20.584292
     16          6           0       19.912294   23.353011   20.698087
     17          6           0       19.590120   22.671079   22.033655
     18          8           0       19.599549   21.387568   22.102050
     19          8           0       19.282702   23.376665   23.010360
     20          1           0       20.517444   24.234053   20.916201
     21          1           0       18.961431   23.732290   20.307474
     22          1           0       20.834642   23.205231   18.765123
     23          1           0       18.827222   21.671746   18.995097
     24          1           0       19.937982   21.230814   17.024023
     25          1           0       21.369143   20.704858   17.910822
     26          1           0       21.144015   18.227545   19.038753
     27          1           0       19.048301   16.805565   18.742269
     28          6           0       19.976306   16.585797   20.661237
     29          6           0       20.453703   17.262315   21.949940
     30          8           0       20.585086   18.545551   21.984906
     31          8           0       20.729895   16.550218   22.924437
     32          1           0       19.277048   15.798772   20.948344
     33          1           0       20.849547   16.084091   20.229429
     34          8           0       16.055818   18.582979   23.540874
     35          1           0       16.891401   18.931636   23.909492
     36          1           0       15.488485   18.435908   24.305094
     37          8           0       23.460970   15.004005   21.552351
     38          1           0       23.951462   14.538214   20.865076
     39          1           0       22.655790   14.484369   21.714991
     40          8           0       16.282395   22.731158   23.111442
     41          1           0       17.205613   23.021322   23.091647
     42          1           0       16.244657   22.009573   22.470833
     43          8           0       20.721505   13.823480   22.689066
     44          1           0       19.885770   13.502586   22.339443
     45          1           0       20.596709   14.783920   22.833499
     46          8           0       17.075242   22.077342   18.191154
     47          1           0       16.958036   21.888245   17.251340
     48          1           0       16.780057   22.989904   18.296063
     49          8           0       16.061712   14.837074   19.687736
     50          1           0       16.375687   15.760875   19.665089
     51          1           0       15.165669   14.855834   19.332260
     52          8           0       26.101855   20.794886   19.691819
     53          1           0       26.731747   21.383975   20.124899
     54          1           0       25.251132   21.247919   19.775332
     55          8           0       24.240670   17.639657   22.443388
     56          1           0       23.859030   16.805273   22.116177
     57          1           0       24.955987   17.363705   23.027387
     58          8           0       23.441941   20.412103   22.974094
     59          1           0       23.753180   19.492268   22.912401
     60          1           0       22.919429   20.524027   22.159835
     61          8           0       18.569998   19.510148   24.520942
     62          1           0       18.609691   20.383700   24.966267
     63          1           0       19.129354   19.625349   23.739846
     64          8           0       24.356331   23.128034   22.873536
     65          1           0       24.033223   23.215287   21.965412
     66          1           0       24.187455   22.187366   23.067550
     67          8           0       17.157895   15.266921   22.569959
     68          1           0       16.945979   16.201853   22.692091
     69          1           0       16.681274   15.017347   21.760651
     70          8           0       18.330038   25.602204   24.559469
     71          1           0       19.035160   25.978989   25.097951
     72          1           0       18.773701   24.970755   23.970139
     73          8           0       18.825850   22.063004   25.591454
     74          1           0       19.074514   22.550339   24.782913
     75          1           0       19.543580   22.203940   26.218194
     76          8           0       24.871453   24.702481   19.636262
     77          1           0       24.522850   25.597438   19.699337
     78          1           0       24.098450   24.120685   19.713754
     79          8           0       20.892355   17.586771   25.567322
     80          1           0       20.937145   17.226922   24.661864
     81          1           0       20.160826   18.223731   25.509430
 ---------------------------------------------------------------------
 Symmetry turned off by external request.
 Stoichiometry    C10H44FeN2O24(1-,6)
 Framework group  C1[X(C10H44FeN2O24)]
 Deg. of freedom   237
 Full point group                 C1      NOp   1
                          Input orientation:                          
 ---------------------------------------------------------------------
 Center     Atomic      Atomic             Coordinates (Angstroms)
 Number     Number       Type             X           Y           Z
 ---------------------------------------------------------------------
      1         26           0       20.005611   19.980061   20.789490
      2          8           0       16.957639   17.425328   20.134716
      3          6           0       18.001042   18.076065   20.130937
      4          8           0       18.124034   19.275873   20.594431
      5          6           0       19.304845   17.456231   19.582023
      6          7           0       20.189195   18.563692   19.143940
      7          6           0       19.764613   19.257940   17.897318
      8          1           0       18.674243   19.253323   17.859230
      9          1           0       20.131226   18.731132   17.012823
     10          6           0       20.277720   20.697438   17.915366
     11          7           0       19.798747   21.378702   19.151602
     12          6           0       20.621605   22.528300   19.596785
     13          6           0       21.958216   21.983952   20.140115
     14          8           0       22.960229   22.701512   20.177098
     15          8           0       21.908079   20.772481   20.584292
     16          6           0       19.912294   23.353011   20.698087
     17          6           0       19.590120   22.671079   22.033655
     18          8           0       19.599549   21.387568   22.102050
     19          8           0       19.282702   23.376665   23.010360
     20          1           0       20.517444   24.234053   20.916201
     21          1           0       18.961431   23.732290   20.307474
     22          1           0       20.834642   23.205231   18.765123
     23          1           0       18.827222   21.671746   18.995097
     24          1           0       19.937982   21.230814   17.024023
     25          1           0       21.369143   20.704858   17.910822
     26          1           0       21.144015   18.227545   19.038753
     27          1           0       19.048301   16.805565   18.742269
     28          6           0       19.976306   16.585797   20.661237
     29          6           0       20.453703   17.262315   21.949940
     30          8           0       20.585086   18.545551   21.984906
     31          8           0       20.729895   16.550218   22.924437
     32          1           0       19.277048   15.798772   20.948344
     33          1           0       20.849547   16.084091   20.229429
     34          8           0       16.055818   18.582979   23.540874
     35          1           0       16.891401   18.931636   23.909492
     36          1           0       15.488485   18.435908   24.305094
     37          8           0       23.460970   15.004005   21.552351
     38          1           0       23.951462   14.538214   20.865076
     39          1           0       22.655790   14.484369   21.714991
     40          8           0       16.282395   22.731158   23.111442
     41          1           0       17.205613   23.021322   23.091647
     42          1           0       16.244657   22.009573   22.470833
     43          8           0       20.721505   13.823480   22.689066
     44          1           0       19.885770   13.502586   22.339443
     45          1           0       20.596709   14.783920   22.833499
     46          8           0       17.075242   22.077342   18.191154
     47          1           0       16.958036   21.888245   17.251340
     48          1           0       16.780057   22.989904   18.296063
     49          8           0       16.061712   14.837074   19.687736
     50          1           0       16.375687   15.760875   19.665089
     51          1           0       15.165669   14.855834   19.332260
     52          8           0       26.101855   20.794886   19.691819
     53          1           0       26.731747   21.383975   20.124899
     54          1           0       25.251132   21.247919   19.775332
     55          8           0       24.240670   17.639657   22.443388
     56          1           0       23.859030   16.805273   22.116177
     57          1           0       24.955987   17.363705   23.027387
     58          8           0       23.441941   20.412103   22.974094
     59          1           0       23.753180   19.492268   22.912401
     60          1           0       22.919429   20.524027   22.159835
     61          8           0       18.569998   19.510148   24.520942
     62          1           0       18.609691   20.383700   24.966267
     63          1           0       19.129354   19.625349   23.739846
     64          8           0       24.356331   23.128034   22.873536
     65          1           0       24.033223   23.215287   21.965412
     66          1           0       24.187455   22.187366   23.067550
     67          8           0       17.157895   15.266921   22.569959
     68          1           0       16.945979   16.201853   22.692091
     69          1           0       16.681274   15.017347   21.760651
     70          8           0       18.330038   25.602204   24.559469
     71          1           0       19.035160   25.978989   25.097951
     72          1           0       18.773701   24.970755   23.970139
     73          8           0       18.825850   22.063004   25.591454
     74          1           0       19.074514   22.550339   24.782913
     75          1           0       19.543580   22.203940   26.218194
     76          8           0       24.871453   24.702481   19.636262
     77          1           0       24.522850   25.597438   19.699337
     78          1           0       24.098450   24.120685   19.713754
     79          8           0       20.892355   17.586771   25.567322
     80          1           0       20.937145   17.226922   24.661864
     81          1           0       20.160826   18.223731   25.509430
 ---------------------------------------------------------------------
 Rotational constants (GHZ):           0.0827714           0.0634321           0.0548462
 Standard basis: 6-311++G(d,p) (5D, 7F)
  1158 basis functions,  1786 primitive gaussians,  1201 cartesian basis functions
   171 alpha electrons      166 beta electrons
       nuclear repulsion energy      6211.2751543634 Hartrees.
 NAtoms=   81 NActive=   81 NUniq=   81 SFac= 1.00D+00 NAtFMM=   60 NAOKFM=T Big=T
 Integral buffers will be    131072 words long.
 Raffenetti 2 integral format.
 Two-electron integral symmetry is turned off.
 Force inversion solution in PCM.
 ------------------------------------------------------------------------------
 Polarizable Continuum Model (PCM)
 =================================
 Model                : C-PCM.
 Atomic radii         : UFF (Universal Force Field).
 Polarization charges : Total charges.
 Charge compensation  : None.
 Solution method      : Matrix inversion.
 Cavity type          : Scaled VdW (van der Waals Surface) (Alpha=1.100).
 Cavity algorithm     : GePol (No added spheres)
                        Default sphere list used, NSphG=   81.
                        Lebedev-Laikov grids with approx.  5.0 points / Ang**2.
                        Smoothing algorithm: York/Karplus (Gamma=1.0000).
                        Polarization charges: spherical gaussians, with
                                              point-specific exponents (IZeta= 3).
                        Self-potential: point-specific (ISelfS= 7).
                        Self-field    : sphere-specific E.n sum rule (ISelfD= 2).
 1st derivatives      : Analytical E(r).r(x)/FMM algorithm (CHGder, D1EAlg=3).
                        Cavity 1st derivative terms included.
 2nd derivatives      : Analytical E(r).r(xy)/FMM algorithm (CHGder, D2EAlg=3).
                        Cavity 2nd derivative terms included.
 Solvent              : Water, Eps=  78.355300 Eps(inf)=   1.777849
 ------------------------------------------------------------------------------
 One-electron integrals computed using PRISM.
 NBasis=  1158 RedAO= T EigKep=  1.20D-06  NBF=  1158
 NBsUse=  1157 1.00D-06 EigRej=  9.21D-07 NBFU=  1157
 ExpMin= 1.26D-02 ExpMax= 2.58D+05 ExpMxC= 8.89D+03 IAcc=3 IRadAn=         5 AccDes= 0.00D+00
 Harris functional with IExCor=  402 and IRadAn=       5 diagonalized for initial guess.
 HarFok:  IExCor=  402 AccDes= 0.00D+00 IRadAn=         5 IDoV= 1 UseB2=F ITyADJ=14
 ICtDFT=  3500011 ScaDFX=  1.000000  1.000000  1.000000  1.000000
 FoFCou: FMM=F IPFlag=           0 FMFlag=      100000 FMFlg1=        2001
         NFxFlg=           0 DoJE=T BraDBF=F KetDBF=T FulRan=T
         wScrn=  0.000000 ICntrl=       500 IOpCl=  0 I1Cent=   200000004 NGrid=           0
         NMat0=    1 NMatS0=      1 NMatT0=    0 NMatD0=    1 NMtDS0=    0 NMtDT0=    0
 Symmetry not used in FoFCou.
 Initial guess <Sx>= 0.0000 <Sy>= 0.0000 <Sz>= 2.5000 <S**2>= 8.7500 S= 2.5000
 Requested convergence on RMS density matrix=1.00D-08 within 128 cycles.
 Requested convergence on MAX density matrix=1.00D-06.
 Requested convergence on             energy=1.00D-06.
 No special actions if energy rises.
 Inv3:  Mode=1 IEnd=   132428208.
 Iteration    1 A*A^-1 deviation from unit magnitude is 2.04D-14 for   1638.
 Iteration    1 A*A^-1 deviation from orthogonality  is 8.63D-15 for   4877    538.
 Iteration    1 A^-1*A deviation from unit magnitude is 1.64D-14 for   1638.
 Iteration    1 A^-1*A deviation from orthogonality  is 8.71D-15 for   4838    185.
 EnCoef did   100 forward-backward iterations
 Restarting incremental Fock formation.
 Error on total polarization charges =  0.02464
 SCF Done:  E(UB3LYP) =  -3587.57173548     A.U. after   22 cycles
            NFock= 22  Conv=0.22D-08     -V/T= 2.0026
 <Sx>= 0.0000 <Sy>= 0.0000 <Sz>= 2.5000 <S**2>= 8.7569 S= 2.5011
 <L.S>= 0.000000000000E+00
 Annihilation of the first spin contaminant:
 S**2 before annihilation     8.7569,   after     8.7500
 DoSCS=F DFT=T ScalE2(SS,OS)=  1.000000  1.000000
 Range of M.O.s used for correlation:     1  1157
 NBasis=  1158 NAE=   171 NBE=   166 NFC=     0 NFV=     0
 NROrb=   1157 NOA=   171 NOB=   166 NVA=   986 NVB=   991

 **** Warning!!: The largest alpha MO coefficient is  0.14826720D+03


 **** Warning!!: The largest beta MO coefficient is  0.10829905D+03

 NEqPCM:  Using non-equilibrium solvation (IEInf=1, Eps=  78.3553, EpsInf=   1.7778)
 Inv3:  Mode=1 IEnd=   132428208.
 Iteration    1 A*A^-1 deviation from unit magnitude is 2.04D-14 for   1638.
 Iteration    1 A*A^-1 deviation from orthogonality  is 8.63D-15 for   4877    538.
 Iteration    1 A^-1*A deviation from unit magnitude is 1.64D-14 for   1638.
 Iteration    1 A^-1*A deviation from orthogonality  is 8.71D-15 for   4838    185.
          Differentiating once with respect to electric field.
                with respect to dipole field.
                with respect to quadrupole field.
          Differentiating once with respect to magnetic field using GIAOs.
          Electric field/nuclear overlap derivatives assumed to be zero.
 FoFJK:  IHMeth= 1 ICntrl=    6127 DoSepK=F KAlg= 0 I1Cent=           0 FoldK=F
 IRaf=         1 NMat=       1 IRICut=       1 DoRegI=T DoRafI=F ISym2E= 0 IDoP0=0 IntGTp=1.
 CalDSu exits because no D1Ps are significant.
 CalDSu exits because no D1Ps are significant.
 CalDSu exits because no D1Ps are significant.
 CalDSu exits because no D1Ps are significant.
 CalDSu exits because no D1Ps are significant.
 CalDSu exits because no D1Ps are significant.
 CalDSu exits because no D1Ps are significant.
 CalDSu exits because no D1Ps are significant.
 CalDSu exits because no D1Ps are significant.
 CalDSu exits because no D1Ps are significant.
 CalDSu exits because no D1Ps are significant.
 CalDSu exits because no D1Ps are significant.
          There are    36 degrees of freedom in the 1st order CPHF.  IDoFFX=0 NUNeed=    36.
 LinEq1:  Iter=  0 NonCon=    36 RMS=2.71D+00 Max=3.67D+02 NDo=    36
 AX will form     3 AO Fock derivatives at one time.
 LinEq1:  Iter=  1 NonCon=    36 RMS=1.39D+00 Max=1.42D+02 NDo=    36
 LinEq1:  Iter=  2 NonCon=    36 RMS=1.26D+00 Max=1.97D+02 NDo=    36
 LinEq1:  Iter=  3 NonCon=    36 RMS=1.37D+00 Max=2.40D+02 NDo=    36
 LinEq1:  Iter=  4 NonCon=    36 RMS=1.78D+00 Max=2.91D+02 NDo=    36
 LinEq1:  Iter=  5 NonCon=    36 RMS=1.93D+00 Max=3.08D+02 NDo=    36
 LinEq1:  Iter=  6 NonCon=    36 RMS=1.60D+00 Max=2.83D+02 NDo=    36
 LinEq1:  Iter=  7 NonCon=    36 RMS=1.30D+00 Max=2.05D+02 NDo=    36
 LinEq1:  Iter=  8 NonCon=    36 RMS=8.31D-01 Max=1.27D+02 NDo=    36
 LinEq1:  Iter=  9 NonCon=    36 RMS=7.00D-01 Max=9.65D+01 NDo=    36
 LinEq1:  Iter= 10 NonCon=    36 RMS=6.09D-01 Max=9.81D+01 NDo=    36
 LinEq1:  Iter= 11 NonCon=    36 RMS=5.04D-01 Max=7.61D+01 NDo=    36
 LinEq1:  Iter= 12 NonCon=    36 RMS=3.13D-01 Max=4.32D+01 NDo=    36
 LinEq1:  Iter= 13 NonCon=    36 RMS=1.58D-01 Max=2.31D+01 NDo=    36
 LinEq1:  Iter= 14 NonCon=    36 RMS=1.22D-01 Max=1.71D+01 NDo=    36
 LinEq1:  Iter= 15 NonCon=    36 RMS=1.02D-01 Max=1.40D+01 NDo=    36
 LinEq1:  Iter= 16 NonCon=    36 RMS=8.62D-02 Max=1.28D+01 NDo=    36
 LinEq1:  Iter= 17 NonCon=    36 RMS=6.77D-02 Max=8.66D+00 NDo=    36
 LinEq1:  Iter= 18 NonCon=    36 RMS=5.46D-02 Max=7.32D+00 NDo=    36
 LinEq1:  Iter= 19 NonCon=    36 RMS=3.52D-02 Max=4.68D+00 NDo=    36
 LinEq1:  Iter= 20 NonCon=    36 RMS=2.96D-02 Max=3.60D+00 NDo=    36
 LinEq1:  Iter= 21 NonCon=    36 RMS=1.99D-02 Max=2.76D+00 NDo=    36
 LinEq1:  Iter= 22 NonCon=    36 RMS=1.92D-02 Max=2.16D+00 NDo=    36
 LinEq1:  Iter= 23 NonCon=    36 RMS=1.39D-02 Max=2.15D+00 NDo=    36
 LinEq1:  Iter= 24 NonCon=    36 RMS=1.08D-02 Max=1.54D+00 NDo=    36
 LinEq1:  Iter= 25 NonCon=    36 RMS=6.61D-03 Max=1.04D+00 NDo=    36
 LinEq1:  Iter= 26 NonCon=    36 RMS=3.75D-03 Max=6.03D-01 NDo=    36
 LinEq1:  Iter= 27 NonCon=    36 RMS=2.87D-03 Max=4.51D-01 NDo=    36
 LinEq1:  Iter= 28 NonCon=    36 RMS=1.44D-03 Max=2.04D-01 NDo=    36
 LinEq1:  Iter= 29 NonCon=    36 RMS=1.22D-03 Max=1.60D-01 NDo=    36
 LinEq1:  Iter= 30 NonCon=    36 RMS=7.46D-04 Max=9.25D-02 NDo=    36
 LinEq1:  Iter= 31 NonCon=    36 RMS=4.64D-04 Max=5.95D-02 NDo=    36
 LinEq1:  Iter= 32 NonCon=    36 RMS=2.86D-04 Max=4.03D-02 NDo=    36
 LinEq1:  Iter= 33 NonCon=    36 RMS=1.51D-04 Max=2.08D-02 NDo=    36
 LinEq1:  Iter= 34 NonCon=    36 RMS=1.08D-04 Max=1.93D-02 NDo=    36
 LinEq1:  Iter= 35 NonCon=    36 RMS=7.12D-05 Max=1.27D-02 NDo=    36
 LinEq1:  Iter= 36 NonCon=    36 RMS=4.30D-05 Max=7.91D-03 NDo=    36
 LinEq1:  Iter= 37 NonCon=    36 RMS=3.37D-05 Max=4.13D-03 NDo=    36
 LinEq1:  Iter= 38 NonCon=    36 RMS=1.95D-05 Max=2.60D-03 NDo=    36
 LinEq1:  Iter= 39 NonCon=    36 RMS=1.30D-05 Max=1.37D-03 NDo=    36
 LinEq1:  Iter= 40 NonCon=    34 RMS=7.70D-06 Max=1.19D-03 NDo=    36
 LinEq1:  Iter= 41 NonCon=    32 RMS=3.94D-06 Max=5.02D-04 NDo=    34
 LinEq1:  Iter= 42 NonCon=    30 RMS=2.99D-06 Max=4.36D-04 NDo=    32
 LinEq1:  Iter= 43 NonCon=    30 RMS=1.56D-06 Max=2.51D-04 NDo=    30
 LinEq1:  Iter= 44 NonCon=    29 RMS=9.24D-07 Max=1.21D-04 NDo=    30
 LinEq1:  Iter= 45 NonCon=    27 RMS=5.54D-07 Max=7.71D-05 NDo=    29
 LinEq1:  Iter= 46 NonCon=    27 RMS=3.10D-07 Max=4.44D-05 NDo=    27
 LinEq1:  Iter= 47 NonCon=    23 RMS=2.20D-07 Max=3.38D-05 NDo=    27
 LinEq1:  Iter= 48 NonCon=    17 RMS=1.29D-07 Max=1.99D-05 NDo=    23
 LinEq1:  Iter= 49 NonCon=    15 RMS=5.32D-08 Max=9.09D-06 NDo=    17
 LinEq1:  Iter= 50 NonCon=    15 RMS=3.72D-08 Max=4.25D-06 NDo=    15
 LinEq1:  Iter= 51 NonCon=    14 RMS=2.31D-08 Max=2.84D-06 NDo=    15
 LinEq1:  Iter= 52 NonCon=    10 RMS=1.10D-08 Max=1.27D-06 NDo=    14
 LinEq1:  Iter= 53 NonCon=     6 RMS=7.39D-09 Max=8.57D-07 NDo=    10
 LinEq1:  Iter= 54 NonCon=     6 RMS=4.07D-09 Max=5.99D-07 NDo=     6
 LinEq1:  Iter= 55 NonCon=     5 RMS=2.32D-09 Max=3.62D-07 NDo=     6
 LinEq1:  Iter= 56 NonCon=     5 RMS=1.77D-09 Max=2.80D-07 NDo=     5
 LinEq1:  Iter= 57 NonCon=     0 RMS=1.03D-09 Max=9.75D-08 NDo=     5
 Linear equations converged to 1.000D-08 1.000D-07 after    57 iterations.
 Isotropic polarizability for W=    0.027614      378.23 Bohr**3.
 Isotropic polarizability for W=    0.070097      392.96 Bohr**3.
 Isotropic polarizability for W=    0.085969      404.94 Bohr**3.
 Dipole-magnetic dipole polarizability for W=    0.027614:
                 1             2             3 
      1   0.492460D+03  0.857845D+04 -0.653901D+04
      2  -0.696962D+04 -0.525924D+03  0.661706D+04
      3   0.607261D+04 -0.770827D+04  0.312522D+02
 DQ contribution to OR G for W=    0.027614:
                 1             2             3 
      1   0.987983D+03  0.268257D+05 -0.246074D+05
      2  -0.235817D+05 -0.106138D+04  0.229290D+05
      3   0.236567D+05 -0.251217D+05  0.733946D+02
 Optical Rotation G' tensor for W=    0.027614:
                 1             2             3 
      1  -0.340485D+00  0.328749D+01 -0.223313D+01
      2   0.328749D+01 -0.348827D+01 -0.127957D+01
      3  -0.223313D+01 -0.127957D+01  0.161632D+01
 OR G Eigenvalues:    -5.5610    -0.8975     4.2461  Iso=     0.7375
 Eigenvectors:
   (1)  -0.538034   0.842748  -0.017157
   (2)   0.582892   0.386684   0.714641
   (3)  -0.608897  -0.374500   0.699281
 w=    0.027614 a.u., Optical Rotation Beta=      0.7375 au.
 Molar Mass =    632.3036 grams/mole, [Alpha] (16500.0 A) =        5.75 deg.
 Dipole-magnetic dipole polarizability for W=    0.070097:
                 1             2             3 
      1   0.543399D+03  0.900133D+04 -0.674575D+04
      2  -0.719487D+04 -0.588674D+03  0.681529D+04
      3   0.624465D+04 -0.806773D+04  0.442514D+02
 DQ contribution to OR G for W=    0.070097:
                 1             2             3 
      1   0.109067D+04  0.279872D+05 -0.256238D+05
      2  -0.243289D+05 -0.119039D+04  0.236969D+05
      3   0.245989D+05 -0.262142D+05  0.997132D+02
 Optical Rotation G' tensor for W=    0.070097:
                 1             2             3 
      1   0.457066D+00  0.566849D+01 -0.283558D+01
      2   0.566849D+01 -0.377154D+01 -0.154833D+01
      3  -0.283558D+01 -0.154833D+01  0.229066D+01
 OR G Eigenvalues:    -7.7202    -0.0280     6.7244  Iso=     0.3413
 Eigenvectors:
   (1)  -0.578093   0.815101  -0.037677
   (2)   0.461809   0.364898   0.808444
   (3)   0.672712   0.449956  -0.587366
 w=    0.070097 a.u., Optical Rotation Beta=      0.3413 au.
 Molar Mass =    632.3036 grams/mole, [Alpha] ( 6500.0 A) =       17.15 deg.
 Dipole-magnetic dipole polarizability for W=    0.085969:
                 1             2             3 
      1   0.584491D+03  0.935842D+04 -0.690001D+04
      2  -0.736739D+04 -0.643049D+03  0.695821D+04
      3   0.638005D+04 -0.837829D+04  0.600415D+02
 DQ contribution to OR G for W=    0.085969:
                 1             2             3 
      1   0.117242D+04  0.289542D+05 -0.264484D+05
      2  -0.249015D+05 -0.130262D+04  0.242841D+05
      3   0.253802D+05 -0.271386D+05  0.130200D+03
 Optical Rotation G' tensor for W=    0.085969:
                 1             2             3 
      1   0.160125D+01  0.882917D+01 -0.353202D+01
      2   0.882917D+01 -0.338861D+01 -0.178554D+01
      3  -0.353202D+01 -0.178554D+01  0.327128D+01
 OR G Eigenvalues:   -10.1084     1.1803    10.4120  Iso=    -0.4946
 Eigenvectors:
   (1)  -0.611851   0.788972  -0.056229
   (2)   0.349663   0.333559   0.875485
   (3)   0.709489   0.516005  -0.479962
 w=    0.085969 a.u., Optical Rotation Beta=     -0.4946 au.
 Molar Mass =    632.3036 grams/mole, [Alpha] ( 5300.0 A) =      -37.38 deg.
 End of Minotr F.D. properties on file   721 Mask=       B NFrqRd=     3 NDeriv=     1 ND12= 1 LenFil=     113:
 Frequencies=    0.027614    0.070097    0.085969
 Property number 1 -- Alpha(-w,w) frequency  1    0.027614:
                 1             2             3 
      1   0.352140D+03  0.279814D+02  0.311296D+01
      2   0.279814D+02  0.431882D+03  0.147423D+01
      3   0.311296D+01  0.147423D+01  0.350654D+03
 Property number 1 -- Alpha(-w,w) frequency  2    0.070097:
                 1             2             3 
      1   0.364021D+03  0.308093D+02  0.330796D+01
      2   0.308093D+02  0.453661D+03  0.101393D+01
      3   0.330796D+01  0.101393D+01  0.361184D+03
 Property number 1 -- Alpha(-w,w) frequency  3    0.085969:
                 1             2             3 
      1   0.373488D+03  0.331918D+02  0.359128D+01
      2   0.331918D+02  0.472429D+03  0.526628D+00
      3   0.359128D+01  0.526628D+00  0.368905D+03
 Property number 2 -- FD Optical Rotation Tensor frequency  1    0.027614:
                 1             2             3 
      1   0.492460D+03  0.857845D+04 -0.653901D+04
      2  -0.696962D+04 -0.525924D+03  0.661706D+04
      3   0.607261D+04 -0.770827D+04  0.312522D+02
 Property number 2 -- FD Optical Rotation Tensor frequency  2    0.070097:
                 1             2             3 
      1   0.543399D+03  0.900133D+04 -0.674575D+04
      2  -0.719487D+04 -0.588674D+03  0.681529D+04
      3   0.624465D+04 -0.806773D+04  0.442514D+02
 Property number 2 -- FD Optical Rotation Tensor frequency  3    0.085969:
                 1             2             3 
      1   0.584491D+03  0.935842D+04 -0.690001D+04
      2  -0.736739D+04 -0.643049D+03  0.695821D+04
      3   0.638005D+04 -0.837829D+04  0.600415D+02
 Property number 4 -- D-Q polarizability frequency  1    0.027614:
                 1             2             3 
      1   0.171485D+05 -0.941455D+04 -0.934282D+04
      2  -0.764865D+04  0.207792D+05 -0.930966D+04
      3  -0.949990D+04 -0.113646D+05  0.186525D+05
      4   0.142421D+05  0.174731D+05  0.354851D+02
      5   0.142389D+05  0.102347D+04  0.134291D+05
      6   0.109686D+04  0.175160D+05  0.132427D+05
 Property number 4 -- D-Q polarizability frequency  2    0.070097:
                 1             2             3 
      1   0.176755D+05 -0.980386D+04 -0.961133D+04
      2  -0.781263D+04  0.218070D+05 -0.960659D+04
      3  -0.986283D+04 -0.120031D+05  0.192179D+05
      4   0.147951D+05  0.184016D+05  0.126345D+02
      5   0.147175D+05  0.110331D+04  0.138341D+05
      6   0.120302D+04  0.183806D+05  0.136207D+05
 Property number 4 -- D-Q polarizability frequency  3    0.085969:
                 1             2             3 
      1   0.180874D+05 -0.101403D+05 -0.979888D+04
      2  -0.793953D+04  0.226968D+05 -0.983347D+04
      3  -0.101479D+05 -0.125565D+05  0.196324D+05
      4   0.152399D+05  0.191990D+05 -0.633518D+01
      5   0.151026D+05  0.116608D+04  0.141362D+05
      6   0.129628D+04  0.191207D+05  0.138919D+05
 End of Minotr F.D. properties file   722 does not exist.
 End of Minotr F.D. properties file   788 does not exist.
 PrsmSu:  requested number of processors reduced to:   5 ShMem   1 Linda.
 Symmetrizing basis deriv contribution to polar:
 IMax=3 JMax=2 DiffMx= 0.00D+00
 G2DrvN: will do     4 centers at a time, making   21 passes.
 PxScal for G2LodP:  IOpCl= 1 ISclPx=1 IMOff=     1 NMtTot=    73 NTT=  671061 ScalPx= 7.54D+04
 Calling FoFCou, ICntrl=  3107 FMM=T I1Cent=   0 AccDes= 0.00D+00.
 PxScal for G2LodP:  IOpCl= 1 ISclPx=1 IMOff=     1 NMtTot=    73 NTT=  671061 ScalPx= 7.54D+04
 Calling FoFCou, ICntrl=  3107 FMM=T I1Cent=   0 AccDes= 0.00D+00.
 PxScal for G2LodP:  IOpCl= 1 ISclPx=1 IMOff=     1 NMtTot=    73 NTT=  671061 ScalPx= 7.54D+04
 Calling FoFCou, ICntrl=  3107 FMM=T I1Cent=   0 AccDes= 0.00D+00.
 PxScal for G2LodP:  IOpCl= 1 ISclPx=1 IMOff=     1 NMtTot=    73 NTT=  671061 ScalPx= 7.54D+04
 Calling FoFCou, ICntrl=  3107 FMM=T I1Cent=   0 AccDes= 0.00D+00.
 PxScal for G2LodP:  IOpCl= 1 ISclPx=1 IMOff=     1 NMtTot=    73 NTT=  671061 ScalPx= 7.54D+04
 Calling FoFCou, ICntrl=  3107 FMM=T I1Cent=   0 AccDes= 0.00D+00.
 PxScal for G2LodP:  IOpCl= 1 ISclPx=1 IMOff=     1 NMtTot=    73 NTT=  671061 ScalPx= 7.54D+04
 Calling FoFCou, ICntrl=  3107 FMM=T I1Cent=   0 AccDes= 0.00D+00.
 PxScal for G2LodP:  IOpCl= 1 ISclPx=1 IMOff=     1 NMtTot=    73 NTT=  671061 ScalPx= 7.54D+04
 Calling FoFCou, ICntrl=  3107 FMM=T I1Cent=   0 AccDes= 0.00D+00.
 PxScal for G2LodP:  IOpCl= 1 ISclPx=1 IMOff=     1 NMtTot=    73 NTT=  671061 ScalPx= 7.54D+04
 Calling FoFCou, ICntrl=  3107 FMM=T I1Cent=   0 AccDes= 0.00D+00.
 PxScal for G2LodP:  IOpCl= 1 ISclPx=1 IMOff=     1 NMtTot=    73 NTT=  671061 ScalPx= 7.54D+04
 Calling FoFCou, ICntrl=  3107 FMM=T I1Cent=   0 AccDes= 0.00D+00.
 PxScal for G2LodP:  IOpCl= 1 ISclPx=1 IMOff=     1 NMtTot=    73 NTT=  671061 ScalPx= 7.54D+04
 Calling FoFCou, ICntrl=  3107 FMM=T I1Cent=   0 AccDes= 0.00D+00.
 PxScal for G2LodP:  IOpCl= 1 ISclPx=1 IMOff=     1 NMtTot=    73 NTT=  671061 ScalPx= 7.54D+04
 Calling FoFCou, ICntrl=  3107 FMM=T I1Cent=   0 AccDes= 0.00D+00.
 PxScal for G2LodP:  IOpCl= 1 ISclPx=1 IMOff=     1 NMtTot=    73 NTT=  671061 ScalPx= 7.54D+04
 Calling FoFCou, ICntrl=  3107 FMM=T I1Cent=   0 AccDes= 0.00D+00.
 PxScal for G2LodP:  IOpCl= 1 ISclPx=1 IMOff=     1 NMtTot=    73 NTT=  671061 ScalPx= 7.54D+04
 Calling FoFCou, ICntrl=  3107 FMM=T I1Cent=   0 AccDes= 0.00D+00.
 PxScal for G2LodP:  IOpCl= 1 ISclPx=1 IMOff=     1 NMtTot=    73 NTT=  671061 ScalPx= 7.54D+04
 Calling FoFCou, ICntrl=  3107 FMM=T I1Cent=   0 AccDes= 0.00D+00.
 PxScal for G2LodP:  IOpCl= 1 ISclPx=1 IMOff=     1 NMtTot=    73 NTT=  671061 ScalPx= 7.54D+04
 Calling FoFCou, ICntrl=  3107 FMM=T I1Cent=   0 AccDes= 0.00D+00.
 PxScal for G2LodP:  IOpCl= 1 ISclPx=1 IMOff=     1 NMtTot=    73 NTT=  671061 ScalPx= 7.54D+04
 Calling FoFCou, ICntrl=  3107 FMM=T I1Cent=   0 AccDes= 0.00D+00.
 PxScal for G2LodP:  IOpCl= 1 ISclPx=1 IMOff=     1 NMtTot=    73 NTT=  671061 ScalPx= 7.54D+04
 Calling FoFCou, ICntrl=  3107 FMM=T I1Cent=   0 AccDes= 0.00D+00.
 PxScal for G2LodP:  IOpCl= 1 ISclPx=1 IMOff=     1 NMtTot=    73 NTT=  671061 ScalPx= 7.54D+04
 Calling FoFCou, ICntrl=  3107 FMM=T I1Cent=   0 AccDes= 0.00D+00.
 PxScal for G2LodP:  IOpCl= 1 ISclPx=1 IMOff=     1 NMtTot=    73 NTT=  671061 ScalPx= 7.54D+04
 Calling FoFCou, ICntrl=  3107 FMM=T I1Cent=   0 AccDes= 0.00D+00.
 PxScal for G2LodP:  IOpCl= 1 ISclPx=1 IMOff=     1 NMtTot=    73 NTT=  671061 ScalPx= 7.54D+04
 Calling FoFCou, ICntrl=  3107 FMM=T I1Cent=   0 AccDes= 0.00D+00.
 PxScal for G2LodP:  IOpCl= 1 ISclPx=1 IMOff=     1 NMtTot=    73 NTT=  671061 ScalPx= 7.54D+04
 Calling FoFCou, ICntrl=  3107 FMM=T I1Cent=   0 AccDes= 0.00D+00.
 CalDSu:  requested number of processors reduced to:   6 ShMem   1 Linda.
 PxScal for G2LodP:  IOpCl= 1 ISclPx=0 IMOff=     1 NMtTot=    73 NTT=  671061 ScalPx= 1.00D+00
 NEqPCM:  Using non-equilibrium solvation (IEInf=1, Eps=  78.3553, EpsInf=   1.7778)
 G2PCM: DoFxE=T DoFxN=T DoGrad=T DoDP/DQ/DG/TGxP=TTTF NFrqRd=   3 IEInf=1 SqF1=F DoCFld=F IF1Alg=4.
 CoulSu:  requested number of processors reduced to:  32 ShMem   1 Linda.
 CoulSu:  requested number of processors reduced to:  34 ShMem   1 Linda.
 CoulSu:  requested number of processors reduced to:  32 ShMem   1 Linda.
 CoulSu:  requested number of processors reduced to:  34 ShMem   1 Linda.
 CoulSu:  requested number of processors reduced to:  32 ShMem   1 Linda.
 CoulSu:  requested number of processors reduced to:  34 ShMem   1 Linda.
 CoulSu:  requested number of processors reduced to:  32 ShMem   1 Linda.
 CoulSu:  requested number of processors reduced to:  34 ShMem   1 Linda.
 CoulSu:  requested number of processors reduced to:  32 ShMem   1 Linda.
 CoulSu:  requested number of processors reduced to:  34 ShMem   1 Linda.
 CoulSu:  requested number of processors reduced to:  32 ShMem   1 Linda.
 CoulSu:  requested number of processors reduced to:  34 ShMem   1 Linda.
 CoulSu:  requested number of processors reduced to:  32 ShMem   1 Linda.
 CoulSu:  requested number of processors reduced to:  34 ShMem   1 Linda.
 CoulSu:  requested number of processors reduced to:  32 ShMem   1 Linda.
 CoulSu:  requested number of processors reduced to:  34 ShMem   1 Linda.
 CoulSu:  requested number of processors reduced to:  32 ShMem   1 Linda.
 CoulSu:  requested number of processors reduced to:  34 ShMem   1 Linda.
 End of G2Drv F.D. properties on file   721 Mask=       B NFrqRd=     3 NDeriv=     1 ND12= 1 LenFil=     113:
 Frequencies=    0.027614    0.070097    0.085969
 Property number 1 -- Alpha(-w,w) frequency  1    0.027614:
                 1             2             3 
      1   0.352140D+03  0.279814D+02  0.311296D+01
      2   0.279814D+02  0.431882D+03  0.147423D+01
      3   0.311296D+01  0.147423D+01  0.350654D+03
 Property number 1 -- Alpha(-w,w) frequency  2    0.070097:
                 1             2             3 
      1   0.364021D+03  0.308093D+02  0.330796D+01
      2   0.308093D+02  0.453661D+03  0.101393D+01
      3   0.330796D+01  0.101393D+01  0.361184D+03
 Property number 1 -- Alpha(-w,w) frequency  3    0.085969:
                 1             2             3 
      1   0.373488D+03  0.331918D+02  0.359128D+01
      2   0.331918D+02  0.472429D+03  0.526628D+00
      3   0.359128D+01  0.526628D+00  0.368905D+03
 Property number 2 -- FD Optical Rotation Tensor frequency  1    0.027614:
                 1             2             3 
      1   0.492460D+03  0.857845D+04 -0.653901D+04
      2  -0.696962D+04 -0.525924D+03  0.661706D+04
      3   0.607261D+04 -0.770827D+04  0.312522D+02
 Property number 2 -- FD Optical Rotation Tensor frequency  2    0.070097:
                 1             2             3 
      1   0.543399D+03  0.900133D+04 -0.674575D+04
      2  -0.719487D+04 -0.588674D+03  0.681529D+04
      3   0.624465D+04 -0.806773D+04  0.442514D+02
 Property number 2 -- FD Optical Rotation Tensor frequency  3    0.085969:
                 1             2             3 
      1   0.584491D+03  0.935842D+04 -0.690001D+04
      2  -0.736739D+04 -0.643049D+03  0.695821D+04
      3   0.638005D+04 -0.837829D+04  0.600415D+02
 Property number 4 -- D-Q polarizability frequency  1    0.027614:
                 1             2             3 
      1   0.171485D+05 -0.941455D+04 -0.934282D+04
      2  -0.764865D+04  0.207792D+05 -0.930966D+04
      3  -0.949990D+04 -0.113646D+05  0.186525D+05
      4   0.142421D+05  0.174731D+05  0.354851D+02
      5   0.142389D+05  0.102347D+04  0.134291D+05
      6   0.109686D+04  0.175160D+05  0.132427D+05
 Property number 4 -- D-Q polarizability frequency  2    0.070097:
                 1             2             3 
      1   0.176755D+05 -0.980386D+04 -0.961133D+04
      2  -0.781263D+04  0.218070D+05 -0.960659D+04
      3  -0.986283D+04 -0.120031D+05  0.192179D+05
      4   0.147951D+05  0.184016D+05  0.126345D+02
      5   0.147175D+05  0.110331D+04  0.138341D+05
      6   0.120302D+04  0.183806D+05  0.136207D+05
 Property number 4 -- D-Q polarizability frequency  3    0.085969:
                 1             2             3 
      1   0.180874D+05 -0.101403D+05 -0.979888D+04
      2  -0.793953D+04  0.226968D+05 -0.983347D+04
      3  -0.101479D+05 -0.125565D+05  0.196324D+05
      4   0.152399D+05  0.191990D+05 -0.633518D+01
      5   0.151026D+05  0.116608D+04  0.141362D+05
      6   0.129628D+04  0.191207D+05  0.138919D+05
 End of G2Drv F.D. properties on file   722 Mask=       B NFrqRd=     3 NDeriv=   243 ND12= 1 LenFil=   26249:
 Frequencies=    0.027614    0.070097    0.085969
 Property number 1 -- Alpha(-w,w) derivatives, frequency  1    0.027614:
                 1             2             3             4             5 
      1  -0.103431D+02  0.148280D+01 -0.185744D+01 -0.330202D-01 -0.406285D+01
      2   0.148280D+01 -0.289427D+01  0.141063D+01 -0.406285D+01  0.433471D+01
      3  -0.185744D+01  0.141063D+01 -0.667070D+01  0.340742D+00  0.385725D+01
                 6             7             8             9            10 
      1   0.340742D+00  0.206816D+01 -0.286558D+01 -0.105845D+00  0.812344D+01
      2   0.385725D+01 -0.286558D+01  0.312757D+01  0.380909D+00  0.713734D+00
      3  -0.139850D+01 -0.105845D+00  0.380909D+00  0.132281D+01  0.649252D+00
                11            12            13            14            15 
      1   0.713734D+00  0.649252D+00  0.281419D+00  0.610540D+01  0.116374D+01
      2  -0.456901D+00  0.233643D+00  0.610540D+01  0.928634D+01  0.375271D+01
      3   0.233643D+00  0.142611D+01  0.116374D+01  0.375271D+01  0.111729D+01
                16            17            18            19            20 
      1  -0.112912D+01  0.193426D+01  0.113094D+01 -0.205171D+02  0.376676D+00
      2   0.193426D+01  0.499960D+01  0.143337D+01  0.376676D+00 -0.628785D+01
      3   0.113094D+01  0.143337D+01  0.243612D+00  0.291090D+01  0.320452D+01
                21            22            23            24            25 
      1   0.291090D+01  0.448265D+01 -0.102019D+02  0.259512D+00  0.731582D+01
      2   0.320452D+01 -0.102019D+02 -0.185019D+02 -0.511950D+01 -0.103425D+01
      3   0.741860D+01  0.259512D+00 -0.511950D+01 -0.251571D+01  0.591776D+00
                26            27            28            29            30 
      1  -0.103425D+01  0.591776D+00  0.968349D+01  0.101648D+01  0.125258D+00
      2  -0.129847D+01  0.157570D+00  0.101648D+01  0.411069D+00 -0.153903D+01
      3   0.157570D+00  0.363108D+01  0.125258D+00 -0.153903D+01  0.148441D+01
                31            32            33            34            35 
      1   0.418687D+01  0.501587D+01 -0.465187D+00 -0.839984D+00  0.684463D+00
      2   0.501587D+01  0.289801D+01  0.283463D+01  0.684463D+00  0.164984D+01
      3  -0.465187D+00  0.283463D+01 -0.285340D+01  0.392731D+01  0.101918D+01
                36            37            38            39            40 
      1   0.392731D+01  0.525303D+01 -0.349898D+01 -0.730018D+01 -0.123145D+02
      2   0.101918D+01 -0.349898D+01  0.269405D+01  0.413945D+01 -0.248098D+01
      3  -0.825959D+00 -0.730018D+01  0.413945D+01 -0.619535D+01  0.181704D+01
                41            42            43            44            45 
      1  -0.248098D+01  0.181704D+01 -0.630796D+01  0.311042D+01 -0.621837D+01
      2  -0.504861D+01  0.100905D+01  0.311042D+01  0.112547D+01 -0.728791D+01
      3   0.100905D+01  0.688557D+01 -0.621837D+01 -0.728791D+01 -0.820073D+01
                46            47            48            49            50 
      1   0.142747D+01  0.329399D+01  0.217289D+01  0.505166D+01  0.562562D+01
      2   0.329399D+01  0.427875D+01 -0.499827D+00  0.562562D+01 -0.224340D+01
      3   0.217289D+01 -0.499827D+00  0.262419D+01 -0.201445D+01  0.500403D+00
                51            52            53            54            55 
      1  -0.201445D+01  0.307369D+01 -0.154956D+01  0.576127D+01  0.249405D+01
      2   0.500403D+00 -0.154956D+01  0.140957D+01 -0.217723D+00 -0.289227D+00
      3   0.153999D+01  0.576127D+01 -0.217723D+00 -0.183603D+01 -0.955770D+01
                56            57            58            59            60 
      1  -0.289227D+00 -0.955770D+01 -0.212580D+01  0.100605D+01 -0.285138D+01
      2   0.654238D-01  0.767317D+00  0.100605D+01 -0.125288D+02 -0.592257D+01
      3   0.767317D+00 -0.480908D+01 -0.285138D+01 -0.592257D+01  0.463622D+01
                61            62            63            64            65 
      1  -0.771297D+00 -0.168511D+01 -0.444624D+01  0.198007D+01  0.161958D+01
      2  -0.168511D+01 -0.800881D+00 -0.516128D+01  0.161958D+01  0.778385D-01
      3  -0.444624D+01 -0.516128D+01 -0.884237D+01  0.500713D+01  0.902213D+00
                66            67            68            69            70 
      1   0.500713D+01  0.290947D+00  0.136543D+01 -0.408592D+00 -0.102995D+01
      2   0.902213D+00  0.136543D+01  0.710903D+00  0.143171D+01 -0.164903D+00
      3   0.277807D+01 -0.408592D+00  0.143171D+01 -0.101236D+01 -0.676339D+00
                71            72            73            74            75 
      1  -0.164903D+00 -0.676339D+00 -0.716748D+00 -0.239362D+00  0.489996D+00
      2  -0.492388D+00 -0.373662D+00 -0.239362D+00 -0.546604D+00 -0.926057D+00
      3  -0.373662D+00  0.967201D+00  0.489996D+00 -0.926057D+00 -0.226943D+01
                76            77            78            79            80 
      1  -0.192794D+00 -0.427495D+00  0.593327D+00  0.472545D-01  0.294718D+00
      2  -0.427495D+00  0.185784D+01  0.292390D+01  0.294718D+00  0.436117D-01
      3   0.593327D+00  0.292390D+01  0.163824D+01 -0.366946D+00  0.215804D+01
                81            82            83            84            85 
      1  -0.366946D+00 -0.163569D+01  0.559371D+00 -0.811285D+01  0.301977D+01
      2   0.215804D+01  0.559371D+00 -0.562762D+00 -0.135316D+01 -0.585737D+00
      3   0.761336D+01 -0.811285D+01 -0.135316D+01  0.614951D+01  0.299431D+01
                86            87            88            89            90 
      1  -0.585737D+00  0.299431D+01 -0.147771D+01  0.755555D+00  0.279344D+01
      2   0.143609D+02 -0.470622D+01  0.755555D+00  0.150826D+00  0.571805D+01
      3  -0.470622D+01 -0.686033D+01  0.279344D+01  0.571805D+01 -0.125444D+02
                91            92            93            94            95 
      1   0.113257D+02 -0.599414D+01  0.304174D+01 -0.447505D+01 -0.147391D+01
      2  -0.599414D+01  0.402565D+00 -0.174632D+01 -0.147391D+01 -0.210401D+01
      3   0.304174D+01 -0.174632D+01  0.335068D+01 -0.133194D+01  0.143228D+01
                96            97            98            99           100 
      1  -0.133194D+01  0.355741D+01 -0.346761D+01  0.449826D+00 -0.126741D+02
      2   0.143228D+01 -0.346761D+01  0.245417D+01 -0.347416D+01 -0.554422D+01
      3  -0.410550D+01  0.449826D+00 -0.347416D+01  0.394667D+01 -0.799649D+01
               101           102           103           104           105 
      1  -0.554422D+01 -0.799649D+01 -0.404534D+01 -0.319631D+01  0.584234D+01
      2  -0.435564D+01  0.122024D+02 -0.319631D+01  0.199897D+02  0.561745D+01
      3   0.122024D+02  0.498822D+01  0.584234D+01  0.561745D+01 -0.358044D-01
               106           107           108           109           110 
      1  -0.206232D+02 -0.284885D+01 -0.596515D+01  0.292474D+02  0.111040D+02
      2  -0.284885D+01  0.122038D+02  0.976441D+01  0.111040D+02  0.599572D+01
      3  -0.596515D+01  0.976441D+01 -0.142343D+02  0.637572D+01 -0.557733D+01
               111           112           113           114           115 
      1   0.637572D+01  0.823300D+01  0.184387D+02 -0.755517D+01  0.202114D+02
      2  -0.557733D+01  0.184387D+02  0.845122D+01 -0.158145D+02  0.264540D+01
      3   0.115512D+01 -0.755517D+01 -0.158145D+02 -0.860489D+00  0.129538D+02
               116           117           118           119           120 
      1   0.264540D+01  0.129538D+02 -0.437750D+01 -0.153818D+01  0.143185D+01
      2  -0.143106D+02  0.192653D+01 -0.153818D+01  0.321441D+00  0.171766D+01
      3   0.192653D+01  0.402381D+01  0.143185D+01  0.171766D+01 -0.330991D+01
               121           122           123           124           125 
      1   0.564640D+00 -0.530918D+01  0.305309D+01 -0.390857D+00  0.266644D+01
      2  -0.530918D+01 -0.798001D+01  0.333106D+01  0.266644D+01  0.540280D+01
      3   0.305309D+01  0.333106D+01 -0.381178D+01 -0.383816D+01 -0.412027D+01
               126           127           128           129           130 
      1  -0.383816D+01 -0.109952D+02 -0.290584D+01 -0.126177D+01 -0.482390D+01
      2  -0.412027D+01 -0.290584D+01 -0.305903D+00 -0.217525D+01 -0.529448D+01
      3   0.174729D+01 -0.126177D+01 -0.217525D+01 -0.135541D+01 -0.115864D+01
               131           132           133           134           135 
      1  -0.529448D+01 -0.115864D+01 -0.180128D+01 -0.112040D+01 -0.322101D+01
      2  -0.572689D+01  0.314025D+01 -0.112040D+01  0.102076D+01 -0.365197D+00
      3   0.314025D+01  0.388631D+01 -0.322101D+01 -0.365197D+00 -0.222483D+01
               136           137           138           139           140 
      1   0.319079D+01  0.165541D+02 -0.223554D+00  0.139920D+00 -0.624455D+01
      2   0.165541D+02 -0.692665D+01 -0.566055D+01 -0.624455D+01 -0.519168D+01
      3  -0.223554D+00 -0.566055D+01  0.391915D+01 -0.199155D+01 -0.656796D+01
               141           142           143           144           145 
      1  -0.199155D+01  0.811787D+01  0.863678D+00  0.152700D+01 -0.985164D+01
      2  -0.656796D+01  0.863678D+00 -0.675147D+01  0.468678D+01 -0.728977D+01
      3   0.474038D+01  0.152700D+01  0.468678D+01  0.224075D+01  0.340287D+01
               146           147           148           149           150 
      1  -0.728977D+01  0.340287D+01 -0.169992D+01 -0.643215D+00  0.402094D+00
      2   0.285331D+01 -0.157730D+01 -0.643215D+00  0.401375D+02  0.914539D+01
      3  -0.157730D+01 -0.902024D+01  0.402094D+00  0.914539D+01 -0.725874D+00
               151           152           153           154           155 
      1   0.196472D+01 -0.182273D+01 -0.676882D+01  0.155929D+01 -0.130410D+01
      2  -0.182273D+01 -0.324004D+01  0.331834D+01 -0.130410D+01 -0.271300D+01
      3  -0.676882D+01  0.331834D+01  0.590393D+01 -0.148506D+01  0.756645D+00
               156           157           158           159           160 
      1  -0.148506D+01  0.270006D+01 -0.177603D+00  0.297866D+01 -0.320482D+01
      2   0.756645D+00 -0.177603D+00 -0.969589D+01 -0.388450D+01  0.896087D+00
      3   0.795802D+00  0.297866D+01 -0.388450D+01 -0.358696D+01 -0.488951D+00
               161           162           163           164           165 
      1   0.896087D+00 -0.488951D+00  0.193938D+01 -0.639789D+00 -0.480225D+00
      2   0.668252D+00 -0.378125D+01 -0.639789D+00  0.268480D+01  0.892330D+00
      3  -0.378125D+01 -0.372294D+01 -0.480225D+00  0.892330D+00  0.671678D+00
               166           167           168           169           170 
      1  -0.304730D+01  0.327051D+01 -0.170076D+01 -0.174994D+01  0.931529D+00
      2   0.327051D+01 -0.186277D+02 -0.303568D+01  0.931529D+00  0.263945D+01
      3  -0.170076D+01 -0.303568D+01  0.197034D+01  0.452135D+00 -0.106760D+01
               171           172           173           174           175 
      1   0.452135D+00 -0.975418D+00 -0.109683D+01  0.302719D+00  0.766223D+00
      2  -0.106760D+01 -0.109683D+01 -0.606122D+01  0.135951D+01 -0.642528D+00
      3  -0.313590D+01  0.302719D+00  0.135951D+01 -0.343024D+00  0.144186D-01
               176           177           178           179           180 
      1  -0.642528D+00  0.144186D-01  0.125700D+00  0.909137D+00 -0.756855D+00
      2  -0.683240D+01 -0.233524D+00  0.909137D+00 -0.232727D+01 -0.122703D+01
      3  -0.233524D+00  0.203849D+00 -0.756855D+00 -0.122703D+01 -0.148261D+00
               181           182           183           184           185 
      1   0.148160D+01 -0.391323D+01 -0.242418D-01  0.932961D+00  0.810123D+00
      2  -0.391323D+01  0.559975D+01 -0.168563D+01  0.810123D+00 -0.140624D+01
      3  -0.242418D-01 -0.168563D+01 -0.155859D+00  0.180451D+00  0.175278D-01
               186           187           188           189           190 
      1   0.180451D+00 -0.561335D+00 -0.109345D+01  0.123107D+01 -0.170574D+01
      2   0.175278D-01 -0.109345D+01  0.156850D+01 -0.282729D+01 -0.186385D+01
      3   0.417331D+00  0.123107D+01 -0.282729D+01  0.158696D+01  0.170645D+01
               191           192           193           194           195 
      1  -0.186385D+01  0.170645D+01 -0.667813D-01 -0.582782D+00 -0.169769D+00
      2  -0.462314D+00  0.563819D+00 -0.582782D+00 -0.550197D+01  0.234510D+01
      3   0.563819D+00 -0.597386D+00 -0.169769D+00  0.234510D+01 -0.215181D-01
               196           197           198           199           200 
      1   0.122186D+00  0.708049D+00 -0.791709D+00 -0.503628D+01  0.245338D+01
      2   0.708049D+00  0.146526D+01 -0.333250D+01  0.245338D+01 -0.164668D+01
      3  -0.791709D+00 -0.333250D+01  0.344376D+01 -0.144183D+01  0.162218D+01
               201           202           203           204           205 
      1  -0.144183D+01  0.214776D+01 -0.454740D+00  0.182099D+01 -0.247841D+01
      2   0.162218D+01 -0.454740D+00 -0.918200D+00  0.781745D+00  0.198177D+01
      3  -0.288874D+01  0.182099D+01  0.781745D+00  0.237827D+01 -0.194725D+01
               206           207           208           209           210 
      1   0.198177D+01 -0.194725D+01  0.101210D+01 -0.189604D+00  0.708852D+00
      2  -0.581716D+00  0.831417D+00 -0.189604D+00  0.723158D+00 -0.815700D+00
      3   0.831417D+00 -0.969204D+00  0.708852D+00 -0.815700D+00  0.183881D+01
               211           212           213           214           215 
      1  -0.224653D+00  0.473671D+00  0.747028D+00  0.127099D+00  0.287173D+00
      2   0.473671D+00 -0.196808D+01  0.331169D+01  0.287173D+00  0.963301D-01
      3   0.747028D+00  0.331169D+01 -0.148102D+01  0.930165D-01 -0.229759D+01
               216           217           218           219           220 
      1   0.930165D-01 -0.196804D+01 -0.160692D+01  0.484047D+01  0.238119D+00
      2  -0.229759D+01 -0.160692D+01  0.330614D-02  0.904709D+00 -0.142706D+01
      3   0.819938D+01  0.484047D+01  0.904709D+00 -0.233080D+01 -0.472390D+00
               221           222           223           224           225 
      1  -0.142706D+01 -0.472390D+00 -0.561514D+00 -0.249305D+00  0.803096D+00
      2  -0.423473D+00  0.139119D+01 -0.249305D+00 -0.228664D+00  0.385752D+00
      3   0.139119D+01  0.674466D+00  0.803096D+00  0.385752D+00  0.394321D+00
               226           227           228           229           230 
      1  -0.200990D+01  0.154863D+01  0.152602D+01  0.436998D+00 -0.180108D+01
      2   0.154863D+01 -0.685684D+00 -0.644117D+00 -0.180108D+01  0.172358D+01
      3   0.152602D+01 -0.644117D+00 -0.256247D-01  0.164367D+00  0.640113D+00
               231           232           233           234           235 
      1   0.164367D+00 -0.542283D+00  0.390242D+00 -0.101067D+01  0.141846D+01
      2   0.640113D+00  0.390242D+00 -0.603636D+00  0.664229D+00  0.149026D+01
      3  -0.140687D+01 -0.101067D+01  0.664229D+00  0.311230D+01  0.198938D+01
               236           237           238           239           240 
      1   0.149026D+01  0.198938D+01  0.371842D+00  0.106845D+01  0.196633D+00
      2   0.559852D+00  0.566308D+00  0.106845D+01  0.549808D+01  0.257094D+01
      3   0.566308D+00  0.248381D+00  0.196633D+00  0.257094D+01 -0.105626D+00
               241           242           243           244           245 
      1   0.855118D+00  0.109479D+01  0.860289D+00  0.653061D+00 -0.527086D+01
      2   0.109479D+01  0.124374D+01  0.267922D+01 -0.527086D+01  0.464085D+01
      3   0.860289D+00  0.267922D+01  0.432823D+01  0.250727D+01 -0.674538D+01
               246           247           248           249           250 
      1   0.250727D+01 -0.894488D+00  0.300642D+01 -0.394541D+01  0.505749D+00
      2  -0.674538D+01  0.300642D+01 -0.107229D+02  0.171760D+01 -0.131066D+00
      3  -0.621491D+01 -0.394541D+01  0.171760D+01  0.569371D+00 -0.798211D+00
               251           252           253           254           255 
      1  -0.131066D+00 -0.798211D+00  0.477456D+01 -0.598927D+01 -0.239958D+00
      2  -0.335023D+01 -0.414086D+00 -0.598927D+01 -0.123498D+01  0.195209D+01
      3  -0.414086D+00 -0.363120D+01 -0.239958D+00  0.195209D+01  0.718440D+01
               256           257           258           259           260 
      1   0.347213D+01  0.231256D+01 -0.277670D+00  0.329642D+01 -0.242289D-01
      2   0.231256D+01 -0.269141D+02  0.648380D+00 -0.242289D-01  0.135332D+01
      3  -0.277670D+00  0.648380D+00 -0.122529D+01  0.506530D+01 -0.104752D+02
               261           262           263           264           265 
      1   0.506530D+01 -0.206669D+01  0.168943D+01 -0.383055D-01 -0.231637D+01
      2  -0.104752D+02  0.168943D+01  0.119084D+01 -0.122985D+00 -0.634583D+00
      3   0.176763D+02 -0.383055D-01 -0.122985D+00 -0.986247D+00  0.169600D+01
               266           267           268           269           270 
      1  -0.634583D+00  0.169600D+01 -0.969945D+00  0.138452D+00 -0.111077D+01
      2   0.100090D+02 -0.363264D+01  0.138452D+00  0.637018D+00  0.413364D+01
      3  -0.363264D+01  0.273572D+01 -0.111077D+01  0.413364D+01 -0.756589D+01
               271           272           273           274           275 
      1  -0.171877D+01  0.194138D+01 -0.188013D+01  0.173662D+01 -0.199894D+01
      2   0.194138D+01  0.364249D+01 -0.118970D+01 -0.199894D+01  0.111127D+02
      3  -0.188013D+01 -0.118970D+01 -0.710660D+00  0.143918D-01 -0.302490D+01
               276           277           278           279           280 
      1   0.143918D-01 -0.244926D+01 -0.399150D+00 -0.413327D+00  0.877046D+00
      2  -0.302490D+01 -0.399150D+00 -0.264156D+01  0.599192D+01  0.214375D+01
      3  -0.116619D+01 -0.413327D+00  0.599192D+01 -0.554169D+01  0.128933D+01
               281           282           283           284           285 
      1   0.214375D+01  0.128933D+01 -0.134548D+01  0.131925D+00  0.637334D+00
      2   0.642613D+01  0.226566D+01  0.131925D+00  0.594690D+01  0.122998D+00
      3   0.226566D+01  0.373120D+00  0.637334D+00  0.122998D+00 -0.582136D+00
               286           287           288           289           290 
      1   0.436329D+00  0.620219D+00  0.100311D+01 -0.219913D+01  0.279680D+01
      2   0.620219D+00 -0.275258D+01  0.105307D+01  0.279680D+01 -0.640899D+01
      3   0.100311D+01  0.105307D+01  0.138118D+00  0.232374D+00 -0.234125D+01
               291           292           293           294           295 
      1   0.232374D+00 -0.121933D+01 -0.907696D+00 -0.410627D-01 -0.814644D+00
      2  -0.234125D+01 -0.907696D+00  0.402990D+01  0.228861D+00 -0.832834D+00
      3  -0.757950D+00 -0.410627D-01  0.228861D+00 -0.107268D+00 -0.120194D+01
               296           297           298           299           300 
      1  -0.832834D+00 -0.120194D+01 -0.153749D+01 -0.255052D+01 -0.106296D+01
      2   0.928529D+00  0.287221D+01 -0.255052D+01 -0.147164D+01  0.195131D+00
      3   0.287221D+01  0.823449D+00 -0.106296D+01  0.195131D+00 -0.428964D-01
               301           302           303           304           305 
      1  -0.549984D+01  0.597866D+01 -0.436722D+00  0.626472D+00 -0.189155D+01
      2   0.597866D+01  0.475252D+01 -0.370950D+01 -0.189155D+01  0.852838D+00
      3  -0.436722D+00 -0.370950D+01  0.113426D+01 -0.109483D+01  0.115135D+00
               306           307           308           309           310 
      1  -0.109483D+01  0.408625D-02  0.142270D+01  0.192414D+01  0.290484D+01
      2   0.115135D+00  0.142270D+01 -0.851519D-01  0.368313D+00 -0.429520D+01
      3   0.116481D+01  0.192414D+01  0.368313D+00  0.108107D+01  0.774328D+00
               311           312           313           314           315 
      1  -0.429520D+01  0.774328D+00  0.257990D+01  0.209682D+01  0.336634D+00
      2  -0.325250D+01  0.350497D+01  0.209682D+01  0.390236D+00 -0.496035D+00
      3   0.350497D+01 -0.949332D+00  0.336634D+00 -0.496035D+00  0.167714D+00
               316           317           318           319           320 
      1   0.583973D+00  0.790607D+00 -0.448605D+00  0.233141D+01 -0.154175D+01
      2   0.790607D+00  0.131456D+01 -0.728262D+00 -0.154175D+01 -0.102036D+01
      3  -0.448605D+00 -0.728262D+00  0.219509D-01 -0.326756D+00  0.690893D+00
               321           322           323           324           325 
      1  -0.326756D+00 -0.386184D+01 -0.332522D+00  0.192254D+01 -0.321416D+00
      2   0.690893D+00 -0.332522D+00 -0.104677D+01  0.581393D+00  0.416707D+01
      3  -0.231188D+00  0.192254D+01  0.581393D+00 -0.146135D+01 -0.217596D+01
               326           327           328           329           330 
      1   0.416707D+01 -0.217596D+01  0.263725D+01 -0.278896D+01  0.561917D+00
      2  -0.411989D+01  0.213182D+01 -0.278896D+01  0.494707D+01 -0.239649D+01
      3   0.213182D+01 -0.870290D+00  0.561917D+00 -0.239649D+01 -0.116202D+00
               331           332           333           334           335 
      1  -0.416793D+01  0.464316D+01 -0.230904D+01  0.154571D+00 -0.840267D+00
      2   0.464316D+01 -0.697613D+01  0.357352D+01 -0.840267D+00  0.127689D+01
      3  -0.230904D+01  0.357352D+01 -0.481495D+00  0.366219D+00 -0.252998D+00
               336           337           338           339           340 
      1   0.366219D+00 -0.177664D+00  0.564239D+00 -0.638550D+00  0.252351D+01
      2  -0.252998D+00  0.564239D+00 -0.159386D+01  0.137584D+01 -0.322044D+01
      3   0.375665D-01 -0.638550D+00  0.137584D+01  0.123034D+00  0.128782D+00
               341           342           343           344           345 
      1  -0.322044D+01  0.128782D+00 -0.661338D+00 -0.330755D+01  0.149138D+01
      2   0.444610D+01 -0.222943D-02 -0.330755D+01  0.190361D+01 -0.138791D+01
      3  -0.222943D-02  0.324070D+00  0.149138D+01 -0.138791D+01  0.246917D+00
               346           347           348           349           350 
      1  -0.237364D+01  0.111940D+01 -0.292050D-01  0.120939D+01 -0.123922D+01
      2   0.111940D+01 -0.199472D+01  0.128427D+01 -0.123922D+01  0.305173D+01
      3  -0.292050D-01  0.128427D+01  0.288194D+00  0.192376D+01 -0.337469D+01
               351           352           353           354           355 
      1   0.192376D+01 -0.181395D+01 -0.206422D+01  0.128725D+01 -0.374142D+01
      2  -0.337469D+01 -0.206422D+01  0.249803D+01 -0.761535D+00  0.347215D+01
      3   0.704855D+00  0.128725D+01 -0.761535D+00  0.532028D-01 -0.356847D+01
               356           357           358           359           360 
      1   0.347215D+01 -0.356847D+01  0.287000D+01 -0.534530D+01  0.273976D+01
      2  -0.430047D+01  0.285465D+01 -0.534530D+01  0.658153D+01 -0.315967D+00
      3   0.285465D+01  0.385634D+01  0.273976D+01 -0.315967D+00 -0.426999D+01
               361           362           363           364           365 
      1   0.263626D+01  0.147354D+01 -0.532654D+00  0.230891D+01 -0.255851D+01
      2   0.147354D+01 -0.113965D+01  0.410209D+00 -0.255851D+01  0.276435D+01
      3  -0.532654D+00  0.410209D+00 -0.730985D+00  0.120138D+01 -0.940746D+00
               366           367           368           369           370 
      1   0.120138D+01 -0.342379D+01  0.342936D+01 -0.143792D+01 -0.826921D+00
      2  -0.940746D+00  0.342936D+01 -0.304698D+01  0.114600D+01  0.701492D+00
      3  -0.258712D+01 -0.143792D+01  0.114600D+01  0.273324D+01 -0.320605D+00
               371           372           373           374           375 
      1   0.701492D+00 -0.320605D+00  0.210161D+01 -0.150841D+01  0.219288D+01
      2  -0.237823D+00  0.317899D+00 -0.150841D+01  0.155286D+01 -0.206078D+01
      3   0.317899D+00  0.496004D+00  0.219288D+01 -0.206078D+01 -0.153192D+01
               376           377           378           379           380 
      1   0.421882D-01  0.269656D+01 -0.399958D+00 -0.603215D+00 -0.517421D+00
      2   0.269656D+01 -0.373580D+01 -0.146462D+01 -0.517421D+00  0.557928D+01
      3  -0.399958D+00 -0.146462D+01  0.124600D+01  0.169690D+01 -0.510562D+01
               381           382           383           384           385 
      1   0.169690D+01 -0.140372D+01  0.374366D+01 -0.470522D+00  0.103659D+01
      2  -0.510562D+01  0.374366D+01  0.195034D+01 -0.414114D+01 -0.475466D+01
      3   0.115980D+01 -0.470522D+00 -0.414114D+01  0.298611D+01  0.364245D+00
               386           387           388           389           390 
      1  -0.475466D+01  0.364245D+00 -0.647156D-01  0.147060D+01 -0.126338D+01
      2  -0.756237D+01  0.123967D+02  0.147060D+01  0.348316D+01  0.264782D+01
      3   0.123967D+02 -0.672809D+01 -0.126338D+01  0.264782D+01 -0.173302D+00
               391           392           393           394           395 
      1  -0.270839D+00 -0.320987D+00 -0.392298D+00 -0.408743D+00  0.327432D+01
      2  -0.320987D+00 -0.155789D+00  0.200523D+00  0.327432D+01  0.122967D+01
      3  -0.392298D+00  0.200523D+00  0.703718D+00 -0.623273D+00 -0.394655D+01
               396           397           398           399           400 
      1  -0.623273D+00  0.434858D+00  0.514942D+00 -0.238928D+00  0.199113D+01
      2  -0.394655D+01  0.514942D+00 -0.959308D+01  0.242885D+01 -0.309949D+01
      3   0.278044D+01 -0.238928D+00  0.242885D+01 -0.110061D+01  0.378221D+00
               401           402           403           404           405 
      1  -0.309949D+01  0.378221D+00 -0.474003D+00  0.149021D+01 -0.193673D+00
      2  -0.266255D+01  0.402229D+01  0.149021D+01  0.788739D+01 -0.813093D+01
      3   0.402229D+01 -0.300235D+01 -0.193673D+00 -0.813093D+01  0.333643D+01
               406           407           408           409           410 
      1   0.692061D+01 -0.169424D+01  0.337745D+01  0.384054D+01 -0.637760D+00
      2  -0.169424D+01 -0.624901D+00  0.104347D+01 -0.637760D+00 -0.144038D+01
      3   0.337745D+01  0.104347D+01 -0.743280D+00 -0.677074D+00  0.877778D+00
               411           412           413           414           415 
      1  -0.677074D+00 -0.220690D+01 -0.190926D+01 -0.627077D+00 -0.214169D+01
      2   0.877778D+00 -0.190926D+01  0.115093D+01 -0.104130D+01 -0.323562D-01
      3  -0.165971D+01 -0.627077D+00 -0.104130D+01  0.125936D+01 -0.771474D+00
               416           417           418           419           420 
      1  -0.323562D-01 -0.771474D+00 -0.175625D+01  0.733192D-01 -0.419679D+00
      2   0.141609D+01 -0.125186D+01  0.733192D-01  0.141883D+01 -0.829758D+00
      3  -0.125186D+01  0.138838D+00 -0.419679D+00 -0.829758D+00  0.807223D+00
               421           422           423           424           425 
      1   0.195974D+01  0.119856D+01  0.167055D+01 -0.182734D+01  0.369537D+00
      2   0.119856D+01 -0.176544D+00 -0.736456D+00  0.369537D+00  0.358032D+00
      3   0.167055D+01 -0.736456D+00  0.234830D+01 -0.483384D+00 -0.127841D+01
               426           427           428           429           430 
      1  -0.483384D+00 -0.274690D+01  0.155923D+01  0.435576D+00  0.125297D+01
      2  -0.127841D+01  0.155923D+01 -0.174967D+01  0.105485D+01 -0.800878D-02
      3   0.148204D+01  0.435576D+00  0.105485D+01  0.695825D+00  0.180269D+00
               431           432           433           434           435 
      1  -0.800878D-02  0.180269D+00  0.263034D+01  0.104602D+01 -0.218461D+01
      2  -0.687447D+00  0.601272D+00  0.104602D+01 -0.105912D+01 -0.406916D+01
      3   0.601272D+00 -0.127399D+01 -0.218461D+01 -0.406916D+01 -0.424191D+01
               436           437           438           439           440 
      1   0.159608D+01 -0.844565D+00  0.316147D+01 -0.598334D+01  0.181205D+00
      2  -0.844565D+00 -0.196123D+01  0.543083D+01  0.181205D+00  0.108898D+02
      3   0.316147D+01  0.543083D+01  0.446651D+01  0.411286D+01  0.865849D+01
               441           442           443           444           445 
      1   0.411286D+01 -0.390799D+01 -0.335197D+01  0.160124D+01 -0.307788D+00
      2   0.865849D+01 -0.335197D+01 -0.184773D+01  0.978484D+00  0.125848D+01
      3   0.354897D+01  0.160124D+01  0.978484D+00  0.161098D+01 -0.104428D+01
               446           447           448           449           450 
      1   0.125848D+01 -0.104428D+01  0.352352D+01 -0.213982D+01 -0.222914D+01
      2   0.323668D+01 -0.516023D+01 -0.213982D+01 -0.114333D+02 -0.555927D+01
      3  -0.516023D+01 -0.335577D+01 -0.222914D+01 -0.555927D+01 -0.223522D+01
               451           452           453           454           455 
      1   0.235998D+01  0.207488D+01  0.131791D+01 -0.187255D+01 -0.840799D+00
      2   0.207488D+01  0.131280D+01  0.263065D+01 -0.840799D+00 -0.675648D+00
      3   0.131791D+01  0.263065D+01  0.270108D+01 -0.130717D+01 -0.934677D+00
               456           457           458           459           460 
      1  -0.130717D+01  0.361676D+01  0.207913D+01 -0.139740D+01  0.294768D+01
      2  -0.934677D+00  0.207913D+01 -0.664045D+00 -0.246641D+01 -0.123210D+01
      3  -0.754787D+00 -0.139740D+01 -0.246641D+01 -0.117724D+01  0.734397D+00
               461           462           463           464           465 
      1  -0.123210D+01  0.734397D+00 -0.254384D+01 -0.418943D+00  0.371268D+01
      2  -0.258367D+00  0.377090D+00 -0.418943D+00  0.611921D+00 -0.884636D-01
      3   0.377090D+00 -0.104791D+01  0.371268D+01 -0.884636D-01 -0.849100D+00
               466           467           468           469           470 
      1   0.380024D+01  0.391301D+01 -0.547835D+01 -0.808027D+00  0.618540D-03
      2   0.391301D+01  0.121988D+01 -0.197910D+01  0.618540D-03  0.136710D+00
      3  -0.547835D+01 -0.197910D+01  0.358128D+01 -0.395687D+00  0.638345D+00
               471           472           473           474           475 
      1  -0.395687D+00 -0.247072D+01 -0.334625D+00 -0.163974D+01 -0.277311D+01
      2   0.638345D+00 -0.334625D+00 -0.447758D+00  0.123572D+00 -0.220106D+01
      3  -0.241540D+00 -0.163974D+01  0.123572D+00  0.451675D+00  0.253518D+01
               476           477           478           479           480 
      1  -0.220106D+01  0.253518D+01 -0.227738D+01  0.135412D+01 -0.667427D+00
      2  -0.621680D+00  0.104952D+01  0.135412D+01 -0.874309D-01 -0.933063D+00
      3   0.104952D+01 -0.174173D+01 -0.667427D+00 -0.933063D+00  0.131194D+01
               481           482           483           484           485 
      1   0.552951D+01 -0.154801D-01 -0.206808D+01 -0.209564D+01 -0.179316D+01
      2  -0.154801D-01 -0.595106D+00  0.335605D-02 -0.179316D+01 -0.745401D+00
      3  -0.206808D+01  0.335605D-02  0.414479D+00  0.256172D+01  0.669205D+00
               486           487           488           489           490 
      1   0.256172D+01 -0.378922D+01  0.226100D+01  0.181070D+01  0.185586D+01
      2   0.669205D+00  0.226100D+01  0.302356D+00 -0.103173D+01 -0.143705D+01
      3  -0.192150D+01  0.181070D+01 -0.103173D+01  0.255329D+01  0.255416D+01
               491           492           493           494           495 
      1  -0.143705D+01  0.255416D+01  0.870243D+01 -0.166397D+01 -0.139717D+01
      2   0.312441D+01 -0.715679D+00 -0.166397D+01  0.124144D+01  0.139897D+01
      3  -0.715679D+00  0.270024D+00 -0.139717D+01  0.139897D+01 -0.169367D+01
               496           497           498           499           500 
      1   0.379118D+01 -0.266834D+01 -0.103211D+01 -0.347784D+01  0.176574D+01
      2  -0.266834D+01  0.419276D+00 -0.198987D+00  0.176574D+01 -0.365258D+01
      3  -0.103211D+01 -0.198987D+00 -0.581691D+00 -0.223249D+01  0.623574D-01
               501           502           503           504           505 
      1  -0.223249D+01 -0.275060D+01  0.337150D+00  0.908562D+00 -0.782080D-01
      2   0.623574D-01  0.337150D+00 -0.123448D+01 -0.118618D+01  0.143485D+00
      3  -0.251468D+00  0.908562D+00 -0.118618D+01  0.129541D+01 -0.893972D+00
               506           507           508           509           510 
      1   0.143485D+00 -0.893972D+00  0.226566D+01 -0.977068D+00  0.479165D+00
      2  -0.479447D+00  0.114391D+01 -0.977068D+00  0.551642D+00 -0.453752D+00
      3   0.114391D+01 -0.186214D+01  0.479165D+00 -0.453752D+00  0.512493D+00
               511           512           513           514           515 
      1  -0.488934D+01  0.114049D+01  0.182605D+00 -0.146275D+02 -0.338757D+01
      2   0.114049D+01 -0.205688D+00 -0.904237D-01 -0.338757D+01 -0.731276D+00
      3   0.182605D+00 -0.904237D-01 -0.222242D+00 -0.394166D+00 -0.148024D+01
               516           517           518           519           520 
      1  -0.394166D+00 -0.390327D+01 -0.356578D+01  0.361943D+00  0.844784D+01
[...]
 00000734,0.00001462,0.00001569,0.00004265,0.00008994,-0.00003095,-0.00
 005278,-0.00005047,-0.00000215,-0.00006503,-0.00010030,0.00003544,0.00
 000117,-0.00000812,-0.00000076,-0.00001188,0.00012913,0.00003455,0.000
 00490,-0.00015267,-0.00003603,0.00001789,-0.00005868,-0.00004361,-0.00
 000082,-0.00000379,0.00000209,0.00000090,-0.00000007,0.00000248,-0.000
 00403,-0.00000828,0.00000073,-0.00001997,0.00000226,0.00000286,-0.0000
 0157,0.00000020,0.00000746,-0.00000217,0.00000204,-0.00000155,0.000010
 29,-0.00000009,-0.00001025,0.00000199,-0.00002142,0.00003152,0.0006397
 5,-0.00002385,-0.00014895,-0.00020274,0.00106118,-0.00207889,-0.000522
 55,-0.00098929,0.00067125,-0.00463398,0.00004871,0.00192899,0.00000593
 ,0.00004653,0.00004119,-0.00002299,-0.00008836,-0.00005915,0.00005041,
 0.00002397,0.00000216,-0.00007572,-0.00004048,-0.00002529,0.00000272,-
 0.00000453,0.00000564,-0.00000474,-0.00001515,0.00002678,-0.00001852,0
 .00000921,-0.00001199,0.00001842,0.00000256,-0.00000564,0.00001038,-0.
 00000569,-0.00000137,-0.00001497,-0.00000064,0.00000022,-0.00000049,0.
 00000505,0.00000095,0.00001913,0.00011098,0.00001236,-0.00001834,-0.00
 000249,0.00000009,-0.00000662,-0.00024110,-0.00002308,0.00000972,-0.00
 000398,0.00000435,-0.00000072,-0.00000014,-0.00000084,0.00000032,0.000
 00038,0.00000068,0.00000771,0.00001169,0.00000640,-0.00000666,-0.00002
 258,-0.00000672,-0.00000038,-0.00000019,-0.00000137,-0.00000090,-0.000
 00123,-0.00000211,0.00000100,0.00000055,0.00000188,0.00000196,-0.00000
 109,0.00000123,0.00003442,0.00000416,-0.00001410,-0.00001605,0.0000343
 7,0.00000923,-0.00000385,0.00000473,-0.00000466,-0.00001428,0.00001364
 ,-0.00002927,0.00000680,-0.00001539,0.00001788,0.00001997,-0.00000231,
 0.00002139,0.00024386,-0.00047711,-0.00036371,0.00011048,0.00005268,0.
 00017336,-0.00025584,0.00041843,-0.00015560,-0.00000219,0.00000736,0.0
 0000004,0.00000310,0.00000026,0.00000044,0.00000150,-0.00000837,0.0000
 0209,0.00003759,0.00001969,-0.00001130,-0.00001440,-0.00000293,0.00000
 623,-0.00001538,-0.00000159,-0.00000029,0.00000058,-0.00000482,-0.0000
 0340,0.00000155,0.00000104,0.00000066,-0.00000380,0.00000786,0.0000051
 1,-0.00001173,-0.00006595,-0.00004246,0.00000255,0.00000992,0.00000462
 ,0.00000048,-0.00000607,0.00000443,-0.00000425,-0.00000386,0.00000160,
 0.00000009,-0.00000152,0.00000008,0.00000729,0.00001113,-0.00000315,-0
 .03220614,0.01682605,-0.01140071,0.04068495,-0.00020655,0.00073976,-0.
 00034730,0.00021054,0.00007201,-0.00001168,-0.00036358,0.00000101,0.00
 006438,0.00016496,-0.00003297,0.00001308,0.00015744,0.00030832,0.00015
 885,0.00003711,-0.00004028,0.00007412,-0.00004814,0.00002899,-0.000071
 31,0.00000154,-0.00000129,-0.00000165,0.00000142,-0.00000333,0.0000217
 7,0.00002804,-0.00002741,0.00000460,0.00002950,-0.00005835,0.00004357,
 0.00001940,0.00002373,0.00003123,0.00006950,0.00016782,-0.00004359,-0.
 00009317,-0.00008893,0.00000556,-0.00010888,-0.00017062,0.00004862,-0.
 00000517,-0.00000524,-0.00000485,-0.00001123,0.00017466,0.00005415,0.0
 0003585,-0.00020482,-0.00012621,0.00002853,-0.00007570,-0.00009023,0.0
 0000070,-0.00000522,0.00000040,0.00000272,-0.00000008,0.00000177,-0.00
 000809,-0.00001403,-0.00000206,-0.00004572,-0.00000077,0.00000540,-0.0
 0000533,-0.00000859,0.00001324,-0.00000454,0.00000249,-0.00000282,0.00
 001634,0.00001000,-0.00004561,0.00006340,-0.00009506,0.00012212,0.0002
 2213,-0.00060329,0.00068099,-0.00002207,0.00770274,-0.00072001,-0.0001
 2520,-0.00348666,-0.00025113,0.00065033,-0.00839142,0.00317308,0.00000
 598,-0.00008726,0.00002982,0.00003006,-0.00004393,0.00007570,-0.000086
 10,-0.00004372,-0.00004080,0.00015184,0.00006699,0.00004744,0.00000094
 ,-0.00000172,-0.00000298,-0.00010977,0.00005177,0.00002454,0.00000790,
 -0.00000189,0.00000011,0.00008883,-0.00007354,-0.00002455,0.00000129,0
 .00000495,-0.00000145,-0.00000954,-0.00000311,0.00000304,-0.00000033,-
 0.00000124,-0.00000022,0.00002947,0.00045041,0.00009350,-0.00005149,0.
 00000078,0.00001197,-0.00009306,-0.00099307,-0.00032225,0.00001758,-0.
 00000585,0.00000658,-0.00000094,-0.00000068,-0.00000097,0.00000062,0.0
 0000090,0.00000202,0.00001957,0.00002682,0.00001318,-0.00003253,-0.000
 04653,-0.00002053,-0.00000202,0.00000106,-0.00000022,-0.00000136,0.000
 00048,-0.00000076,-0.00000052,-0.00000002,0.00000063,0.00000508,-0.000
 00269,-0.00000055,-0.00008255,-0.00002698,0.00000525,0.00007117,0.0000
 1686,-0.00000434,0.00000764,0.00000188,-0.00000057,-0.00001537,0.00001
 202,-0.00005248,0.00000229,-0.00000153,0.00002288,0.00003348,-0.000003
 13,0.00003309,-0.00068305,0.00070949,0.00000488,-0.00009449,-0.0001653
 0,-0.00019550,0.00027732,-0.00043966,0.00044490,-0.00000621,-0.0000001
 3,-0.00001079,0.00000625,0.00000192,0.00001006,0.00000799,0.00000221,0
 .00000866,0.00008881,0.00002013,-0.00003498,-0.00001858,0.00001087,0.0
 0002422,-0.00001810,-0.00001562,-0.00000337,0.00000099,-0.00000245,-0.
 00000460,0.00000040,-0.00000108,-0.00000014,-0.00000294,0.00000906,0.0
 0000920,0.00001687,0.00010665,0.00004030,-0.00000069,-0.00002298,0.000
 03278,-0.00000083,0.00000861,-0.00000767,-0.00000489,-0.00000731,0.000
 00028,-0.00000102,0.00000062,0.00000071,0.00001111,0.00001284,-0.00000
 375,0.02964365,-0.08092284,-0.12839974,-0.03355906,0.09831343,-0.00098
 157,0.00319998,-0.00183736,0.00078207,0.00036675,-0.00001336,-0.001254
 28,-0.00028090,0.00011817,0.00069443,0.00008262,0.00016945,0.00036166,
 0.00071650,0.00040134,0.00017135,-0.00014531,0.00042993,-0.00018478,0.
 00014767,-0.00023231,0.00001022,-0.00001049,-0.00000559,0.00000838,-0.
 00001427,0.00009021,0.00011976,-0.00013789,-0.00001987,0.00010146,-0.0
 0022311,0.00022112,0.00008303,0.00010123,0.00012835,0.00032247,0.00073
 075,-0.00019943,-0.00040902,-0.00039563,0.00002351,-0.00047436,-0.0007
 4256,0.00023948,-0.00001550,-0.00004315,-0.00001064,-0.00006079,0.0009
 0724,0.00026862,0.00014690,-0.00105670,-0.00045620,0.00013875,-0.00040
 528,-0.00038496,-0.00000293,-0.00002186,0.00000986,0.00001126,-0.00000
 336,0.00001019,-0.00003580,-0.00006023,-0.00000361,-0.00019671,0.00000
 251,0.00002172,-0.00002149,-0.00002335,0.00006428,-0.00001786,0.000013
 70,-0.00001163,0.00007958,0.00001841,-0.00013551,0.00018288,-0.0002421
 8,0.00035998,0.00072286,-0.00136236,0.00177077,-0.00228207,0.01657146,
 -0.01229225,0.00017442,-0.01012119,0.00300466,0.00297056,-0.00409969,0
 .01167214,-0.00001786,-0.00024396,0.00005585,0.00008264,-0.00012751,0.
 00020530,-0.00005956,-0.00005629,-0.00007442,0.00016119,0.00007439,0.0
 0005535,-0.00000098,-0.00000594,-0.00001045,-0.00031997,0.00014067,0.0
 0014406,-0.00001884,0.00002021,-0.00004675,0.00032173,-0.00027800,-0.0
 0006915,0.00002967,0.00000972,-0.00000211,-0.00006414,-0.00000598,0.00
 000790,-0.00000777,-0.00000384,-0.00000035,0.00002789,0.00201265,-0.00
 001579,-0.00011796,-0.00005459,0.00001794,-0.00014870,-0.00326231,0.00
 030260,0.00007661,-0.00002583,0.00003108,-0.00000285,-0.00000430,-0.00
 000649,0.00000067,0.00000511,0.00000771,0.00007128,0.00010302,0.000030
 91,-0.00011304,-0.00018517,-0.00006415,-0.00000775,0.00000559,0.000000
 75,-0.00000998,0.00000237,0.00000034,0.00000096,0.00000076,0.00000086,
 0.00002141,-0.00001083,-0.00000328,-0.00028432,-0.00004095,-0.00004616
 ,0.00025958,0.00001275,-0.00001584,-0.00001232,-0.00001187,0.00003597,
 -0.00014155,-0.00005580,-0.00008768,0.00002454,0.00000580,0.00000762,0
 .00014811,0.00003378,0.00010901,-0.00108545,0.00085074,-0.00079787,0.0
 0007102,-0.00023440,-0.00015127,-0.00021544,0.00018848,0.00066439,-0.0
 0001625,-0.00002069,-0.00002553,0.00002789,0.00001907,0.00003913,0.000
 01139,0.00002458,0.00000952,0.00033217,0.00011203,-0.00012141,-0.00007
 626,0.00002919,0.00008062,-0.00006310,-0.00005846,0.00000034,0.0000064
 2,-0.00002625,-0.00002501,0.00000352,-0.00000177,0.00000100,-0.0000146
 7,0.00005945,0.00004098,0.00001236,0.00011676,-0.00000796,-0.00000767,
 -0.00003946,0.00010550,0.00000313,0.00000226,-0.00000792,-0.00002674,-
 0.00003436,0.00000669,-0.00000300,0.00000260,0.00000085,0.00005152,0.0
 0006284,-0.00001803,0.02502791,-0.16085048,-0.40164406,-0.02240565,0.1
 5611930,0.39735843,0.00015066,-0.00023180,-0.00009287,-0.00002191,0.00
 000609,0.00001479,0.00004929,-0.00004402,-0.00002296,-0.00002342,0.000
 03809,0.00004412,-0.00002835,-0.00003043,-0.00002441,-0.00001028,0.000
 01346,-0.00001759,0.00000795,-0.00000324,0.00000735,-0.00000117,0.0000
 0059,0.00000075,-0.00000061,0.00000078,-0.00000286,-0.00000169,0.00000
 188,-0.00000410,-0.00000928,0.00001098,-0.00000095,-0.00000262,-0.0000
 0548,-0.00000913,0.00001440,-0.00001489,0.00000514,-0.00000186,0.00000
 565,-0.00000365,-0.00000567,0.00002409,-0.00000586,0.00000957,-0.00002
 411,0.00001209,-0.00002088,0.00012594,0.00002681,-0.00009533,-0.000170
 35,0.00022993,0.00000414,-0.00006427,0.00002017,-0.00000233,-0.0000033
 9,0.00000621,-0.00000150,-0.00000160,0.00000660,-0.00000107,0.00000410
 ,0.00000428,0.00000371,0.00000110,-0.00000414,0.00000104,0.00000135,-0
 .00000073,0.00000045,-0.00000042,0.00000132,-0.00000163,-0.00000164,0.
 00000858,-0.00000670,0.00001287,-0.00001798,-0.00006912,0.00007005,-0.
 00009250,0.00014384,-0.00094603,0.00071454,-0.00011785,0.00071762,-0.0
 0023425,-0.00011485,-0.00017815,-0.00159969,0.00000342,0.00001069,-0.0
 0000299,-0.00000302,0.00001082,-0.00001034,0.00057840,0.00024123,0.000
 12750,-0.00108520,-0.00043002,-0.00032118,0.00000160,0.00000838,0.0000
 4770,0.00001707,-0.00000678,-0.00001125,-0.00000064,-0.00000089,0.0000
 0197,-0.00001458,0.00001308,0.00000609,0.00001772,-0.00001016,0.000014
 20,-0.00001709,0.00000909,-0.00000990,-0.00000978,0.00000414,-0.000006
 57,-0.00000691,-0.00010235,-0.00000871,0.00000776,0.00000068,-0.000001
 14,0.00001204,0.00017111,0.00000648,-0.00000130,0.00000022,0.00000013,
 0.00000058,-0.00000028,-0.00000026,-0.00000029,0.00000054,-0.00000097,
 -0.00000028,-0.00000117,0.00000232,0.00000274,0.00000300,0.00000004,-0
 .00000023,-0.00000006,-0.00000018,0.00000081,0.00000064,-0.00000221,-0
 .00000015,-0.00000019,0.00000072,-0.00000045,-0.00000067,0.00000120,0.
 00002526,0.00000018,-0.00000639,-0.00001445,0.00000072,0.00000778,-0.0
 0000193,-0.00000030,-0.00000424,0.00001040,0.00001700,-0.00000739,-0.0
 0001068,-0.00000362,0.00000462,-0.00000563,-0.00000532,0.00001089,0.00
 168440,-0.00323219,0.00223402,0.00005557,0.00163097,0.00117717,0.00055
 080,0.00007616,-0.00096422,-0.00000033,0.00000336,-0.00000173,0.000000
 12,-0.00000079,0.00000102,-0.00000197,-0.00000518,0.00000161,-0.000015
 80,0.00001147,0.00001236,0.00001054,-0.00002538,-0.00001816,-0.0000007
 5,-0.00000016,-0.00000203,0.00000106,-0.00001356,-0.00000248,0.0000019
 3,0.00000130,0.00000093,-0.00000395,0.00001700,0.00000532,-0.00012844,
 -0.00069302,-0.00033434,0.00001441,0.00013087,-0.00007083,0.00002997,-
 0.00005455,0.00003895,-0.00000006,0.00000061,-0.00000031,0.,-0.0000003
 5,-0.00000008,0.00000010,0.00000010,0.00000009,-0.27754455,0.23958806,
 -0.01063831,-0.00378567,0.00365651,-0.00267665,0.27978048,-0.00011274,
 0.00020667,0.00011859,0.00000958,-0.00001323,-0.00001475,-0.00003087,0
 .00005501,0.00001994,0.00001654,-0.00004974,-0.00004759,0.00002602,0.0
 0003197,0.00001504,0.00000862,-0.00001242,0.00000857,-0.00000284,-0.00
 000107,-0.00000779,0.00000025,0.00000048,0.00000007,-0.00000036,-0.000
 00039,0.00000112,-0.00000147,0.00000191,0.00000505,0.00000586,-0.00000
 988,-0.00000272,0.00000158,0.00000730,0.00000884,-0.00001245,0.0000041
 4,-0.00000314,0.00000365,-0.00000127,0.00000063,0.00000715,-0.00002094
 ,-0.00000105,0.00000078,0.00002470,0.00000105,0.00000830,-0.00013839,-
 0.00002068,0.00008914,0.00016876,-0.00019908,0.00000149,0.00006879,-0.
 00002686,0.00000255,0.00000249,-0.00000772,0.00000194,0.00000107,-0.00
 000750,-0.00000028,-0.00000376,-0.00000371,-0.00000006,-0.00000083,0.0
 0000500,-0.00000007,-0.00000172,-0.00000065,-0.00000024,-0.00000074,0.
 00000064,0.00000074,0.00000056,-0.00000808,0.00000821,-0.00001308,0.00
 001581,0.00006862,-0.00005455,0.00007464,-0.00017971,0.00107054,-0.000
 87206,0.00008849,-0.00077219,0.00007659,-0.00017890,0.00020922,0.00135
 337,0.00000112,-0.00001194,0.00000189,0.00000462,-0.00001467,0.0000061
 0,-0.00062631,-0.00030042,-0.00014952,0.00106020,0.00054313,0.00029230
 ,-0.00000778,-0.00001608,-0.00003686,-0.00001557,0.00000740,0.00000678
 ,-0.00000075,0.00000077,-0.00000126,0.00001569,-0.00001169,-0.00000409
 ,-0.00001885,0.00001580,-0.00001892,0.00001856,-0.00000821,0.00001279,
 -0.00000008,0.00000389,0.00000711,-0.00000052,0.00009292,0.00000011,-0
 .00000583,-0.00000481,-0.00000063,-0.00000465,-0.00014089,0.00001832,0
 .00000025,-0.00000010,-0.00000152,-0.00000009,0.00000024,0.00000025,0.
 00000024,0.00000006,0.00000051,0.00000245,-0.00000073,0.00000143,-0.00
 000232,-0.00000026,-0.00000035,-0.00000062,0.00000063,-0.00000032,0.00
 000045,-0.00000112,-0.00000035,0.00000014,0.00000045,0.00000043,-0.000
 00113,0.00000093,0.00000006,-0.00001055,-0.00000464,0.00000371,0.00001
 107,0.00000114,-0.00000076,0.00000216,-0.00000111,-0.00000283,0.000011
 30,-0.00000409,-0.00000445,-0.00000288,0.00000525,-0.00000147,-0.00001
 207,0.00000273,0.00000760,-0.00403733,0.00080551,-0.00270957,0.0007670
 6,-0.00214749,-0.00025809,0.00027802,-0.00043657,0.00156399,0.00000110
 ,0.00000008,-0.00000020,-0.00000185,-0.00000044,-0.00000058,0.00000007
 ,0.00000036,0.00000165,0.00002043,-0.00000274,-0.00000302,-0.00001432,
 0.00001876,0.00000397,-0.00000418,-0.00000283,0.00000127,-0.00000193,0
 .00001926,-0.00000009,-0.00000114,-0.00000200,0.00000060,-0.00000027,-
 0.00002466,0.00000081,0.00006659,0.00058055,0.00024976,0.00001026,-0.0
 0009774,0.00008565,-0.00001567,0.00003776,-0.00006274,-0.00000017,0.00
 000056,0.00000007,0.00000014,-0.00000066,-0.00000027,-0.00000008,-0.00
 000052,0.00000074,0.22645283,-0.21145864,-0.00400857,0.01656843,-0.012
 83398,0.00215558,-0.24033573,0.22463143,-0.00003998,0.00020356,-0.0003
 2293,0.00005905,0.00005125,0.00001606,-0.00007729,-0.00009533,-0.00003
 708,0.00006091,0.00005954,0.00005974,-0.00000412,-0.00000227,-0.000023
 60,0.00000503,-0.00000080,0.00004806,-0.00000917,0.00001779,-0.0000119
 8,0.00000173,-0.00000197,-0.00000099,0.00000131,0.00000069,0.00000771,
 0.00001154,-0.00001790,-0.00000991,0.00000396,-0.00001380,0.00002678,0
 .00000719,0.00000660,0.00000981,0.00004406,0.00007560,-0.00002456,-0.0
 0004991,-0.00004307,0.00000188,-0.00005260,-0.00007111,0.00003997,0.00
 000106,-0.00002282,0.00000193,-0.00001419,0.00022389,0.00004230,-0.000
 04480,-0.00025558,0.00009369,0.00002342,-0.00009808,-0.00003215,-0.000
 00274,-0.00000450,0.00000687,-0.00000037,-0.00000163,0.00000587,-0.000
 00486,-0.00000454,0.00000232,-0.00001974,0.00000292,-0.00000260,-0.000
 00134,0.00000042,0.00000761,-0.00000178,0.00000208,-0.00000102,0.00000
 825,-0.00000076,-0.00000615,0.00000401,0.00000107,0.00000626,0.0000849
 7,0.00006232,-0.00004104,-0.00004981,-0.00060975,-0.00060947,-0.000149
 17,0.00012255,0.00060233,-0.00084257,0.00064769,-0.00068386,0.00000885
 ,0.00001239,0.00001922,0.00000186,-0.00000780,-0.00000214,0.00044290,0
 .00019434,0.00009730,-0.00076911,-0.00033379,-0.00022529,0.00000647,0.
 00000872,0.00003544,-0.00001708,0.00000592,0.00000205,-0.00000005,0.00
 000104,0.00000046,0.00001194,-0.00000875,-0.00000117,0.00001565,-0.000
 00729,0.00000913,-0.00002272,0.00000776,-0.00000759,0.00000238,-0.0000
 0284,-0.00000289,0.00000422,0.00007186,-0.00000917,-0.00000351,-0.0000
 0508,0.00000034,-0.00001525,-0.00009802,0.00003858,0.00000724,-0.00000
 289,0.00000356,-0.00000009,0.00000009,-0.00000118,-0.00000018,0.000000
 47,0.00000077,0.00000644,0.00000935,0.00000262,-0.00000700,-0.00001797
 ,-0.00000462,-0.00000112,0.00000010,0.00000030,-0.00000182,-0.00000029
 ,0.,0.00000073,0.00000019,0.00000044,0.00000229,-0.00000118,-0.0000007
 6,-0.00002306,0.00000661,-0.00000409,0.00001084,0.00000034,-0.00000397
 ,-0.00000286,0.00000100,0.00000585,-0.00002034,-0.00001636,-0.00000337
 ,0.00001207,0.00000114,-0.00000374,0.00001602,0.00000180,0.00000871,0.
 00342209,-0.00293854,-0.00102144,0.00045600,0.00078656,0.00115786,-0.0
 0120519,0.00165731,-0.00184336,-0.00000035,-0.00000163,-0.00000168,0.0
 0000300,0.00000215,0.00000326,-0.00000148,0.00000131,0.00000013,0.0000
 2156,0.00002170,-0.00000680,-0.00000441,-0.00001619,0.00000146,-0.0000
 0637,-0.00000299,0.00000113,0.00000047,-0.00001378,-0.00000581,0.00000
 153,-0.00000052,0.00000124,-0.00000357,0.00002206,0.00000789,-0.000116
 71,-0.00045529,-0.00024792,-0.00000717,0.00006619,-0.00004557,0.000016
 27,-0.00006113,0.00004239,-0.00000451,-0.00000436,0.00000084,0.0000000
 3,0.00000010,0.,0.00000716,0.00000748,-0.00000129,-0.04765924,0.029243
 49,-0.04523711,0.03403240,-0.03073029,0.00051992,0.01243074,0.00236146
 ,0.04754824\\-0.00104962,-0.00050317,-0.00175126,0.00018681,-0.0011343
 3,0.00195871,-0.00020488,-0.00042343,0.00016474,-0.00063354,0.00044821
 ,-0.00071095,-0.00034282,-0.00037046,0.00016005,-0.00006904,-0.0004287
 2,0.00059902,-0.00036905,-0.00054017,0.00045049,-0.00005421,0.00003616
 ,0.00004239,0.00006235,-0.00016427,-0.00013837,-0.00011281,-0.00056119
 ,-0.00002349,-0.00056367,0.00009470,-0.00050213,-0.00039488,-0.0001293
 6,-0.00035314,-0.00017371,0.00047346,-0.00036970,-0.00104948,0.0007226
 9,0.00033824,-0.00006530,0.00003993,-0.00027673,-0.00004777,-0.0002637
 0,0.00010881,0.00049453,-0.00025255,0.00066617,0.00187920,-0.00015398,
 0.00093657,0.00137973,0.00034951,0.00015386,-0.00010953,-0.00010073,-0
 .00005292,-0.00045335,0.00006476,-0.00002793,-0.00006428,-0.00008065,0
 .00009650,0.00012729,-0.00004107,-0.00010438,-0.00001858,-0.00013259,0
 .00007340,0.00014182,0.00005519,-0.00005780,-0.00008087,-0.00003220,0.
 00001887,-0.00000718,0.00010563,0.00030049,-0.00042654,-0.00011778,0.0
 0080641,-0.00002988,-0.00024116,0.00034566,0.00209559,0.00082094,-0.00
 086427,0.00080421,0.00053326,0.00026480,-0.00013682,-0.00010329,0.0001
 4321,0.00016936,-0.00023119,-0.00001238,-0.00032450,0.00172873,-0.0014
 1687,-0.00058404,-0.00002048,-0.00058768,-0.00012229,-0.00001992,-0.00
 007091,0.00233445,0.00037816,-0.00052753,0.00124777,-0.00001828,-0.000
 62766,-0.00126835,-0.00066302,-0.00037962,0.00064064,0.00087022,0.0021
 3699,-0.00015138,0.00039447,-0.00086676,0.00033583,-0.00134477,-0.0015
 7806,-0.00512516,0.00053219,-0.00024714,0.00146249,0.00063386,0.000854
 92,0.00012452,-0.00050011,0.00001604,0.00001639,-0.00055337,0.00094047
 ,0.00005222,-0.00002527,-0.00104815,0.00043619,0.00012608,-0.00002733,
 -0.00007485,0.00111699,-0.00161246,-0.00017468,-0.00138953,-0.00008550
 ,-0.00102306,-0.00016549,-0.00097146,0.00145661,-0.00193722,-0.0004653
 4,0.00103795,0.00068354,0.00052051,-0.00087653,0.00031954,-0.00040374,
 -0.00169262,-0.00060165,-0.00155754,0.00045815,0.00113443,0.00023730,-
 0.00027394,0.00005525,0.00035065,-0.00070593,0.00148031,0.00035919,-0.
 00000938,0.00019373,0.00004910,0.00015028,0.00005037,0.00037258,-0.002
 03394,0.00195128,-0.00028402,-0.00011858,-0.00040344,-0.00033059,0.000
 71203,-0.00004251,-0.00070562,0.00021372,0.00196535,0.00015324,-0.0000
 8359,0.00006770,-0.00022831,-0.00010517,-0.00024441,0.00006985,0.00242
 897,0.00095317,0.00177209,0.00067233,-0.00069245,-0.00024679,-0.001250
 68,-0.00066034,-0.00040212,-0.00124690,-0.00105924,0.00026823,0.000590
 86,0.00041821,0.00056450,0.00008769,-0.00027206,0.00007269,0.00033809,
 0.00023783,0.00142518,-0.00011351,-0.00027037,0.00058776,-0.00066052,-
 0.00026159,-0.00008162,-0.00080980,-0.00089461,0.00068310,0.00028962,-
 0.00025909,0.00011273,0.00086376,0.00058037,0.00000165,0.00370104,-0.0
 0321455,0.00058926,-0.00008822,0.00025104,0.00022858,-0.00161702,0.001
 65251,0.00000328\\\@


 ... THE UNIVERSE IS NOT ONLY QUEERER THAN WE SUPPOSE,
 BUT QUEERER THAN WE CAN SUPPOSE ... 

                                   -- J. B. S. HALDANE
 Job cpu time:      69 days 13 hours  1 minutes 20.5 seconds.
 Elapsed time:       2 days  1 hours 47 minutes 19.9 seconds.
 File lengths (MBytes):  RWF=  60576 Int=      0 D2E=      0 Chk=    138 Scr=      1
 Normal termination of Gaussian 16 at Sun Oct 20 23:01:53 2024.
